                                                                                                                                                                                                                   
#==== ==== ==              ====   ========= ===============================================
data_global
#=======================================================================

_audit_creation_method                   'Jana2006 Version : 02/04/2022' 


# 1. PROCESSING SUMMARY (IUCr Office Use Only)

_journal_date_recd_electronic            ?
_journal_date_to_coeditor                ?
_journal_date_from_coeditor              ?
_journal_date_accepted                   ?
_journal_date_printers_first             ?
_journal_date_printers_final             ?
_journal_date_proofs_out                 ?
_journal_date_proofs_in                  ?
_journal_coeditor_name                   ?
_journal_coeditor_code                   ?
_journal_coeditor_notes
; ?
;
_journal_techeditor_code                 ?
_journal_paper_category                  ?
_journal_techeditor_notes
; ?
;
_journal_coden_ASTM                      ?
_journal_name_full                       'Acta Crystallographica Section C'
_journal_year                            ?
_journal_volume                          ?
_journal_issue                           ?
_journal_page_first                      ?
_journal_page_last                       ?
_journal_suppl_publ_number               ?
_journal_suppl_publ_pages                ?

#============================ ============== =============================

# 2. SUBMISSION DETAILS

_publ_contact_author_name                ?
_publ_contact_author_address
; ?
;
_publ_contact_author_email               ?
_publ_contact_author_fax                 ?
_publ_contact_author_phone               ?

_publ_requested_journal                  'Acta Crystallographica Section C'
_publ_requested_category                 ?

_publ_contact_letter
; ?
;

#=======================================================================

# 3. TITLE AND AUTHOR LIST

_publ_section_title
; ?
;
_publ_section_title_footnote
; ?
;
loop_
 _publ_author_name
 _publ_author_footnote
 _publ_author_address
; ?      # name
;
; ?      # footnote
;
; ?      # address
;

#=======================================================================

# 4. TEXT

_publ_section_synopsis
; ?
;
_publ_section_abstract
; ?
;
_publ_section_comment
; ?
;
_publ_section_introduction
; ?
;
_publ_section_experimental
; ?
;
_publ_section_exptl_prep
; ?
;
_publ_section_exptl_refinement
; ?
;
_publ_section_exptl_solution
; ?
;
_publ_section_discussion
; ?
;
_publ_section_acknowledgements
; ?
;
_publ_section_references
;
Petricek, V., Dusek, M. & Palatinus L. (2014). Z. Kristallogr. 229(5), 345-352.

Palatinus L. & Chapuis G. (2007). J. Appl. Cryst. 40, 786-790.

# enable this reference if Diamond ver. 2 was used for visualization
#Brandenburg, K. (1999). DIAMOND. Version. 2.1c.
#Crystal Impact GbR, Bonn, Germany.

# enable this reference if Diamond ver. 3 was used for visualization
#Brandenburg, K. & Putz, H. (2005). DIAMOND Version 3.
#Crystal Impact GbR, Postfach 1251, D-53002 Bonn, Germany.

# enable this reference if SIR97 was used for solving of the structure
#Altomare, A., Burla, M. C., Camalli, M., Cascarano, G., Giacovazzo, C.,
#Guagliardi, A., Moliterni, A. G. G., Polidori, G., Spagna, R. (1997).
#SIR97. A Package for Crystal Structure Solution by Direct Methods
#and Refinement, Bari, Rome, Italy.

# use this reference if SIR2002 was used for solving of the structure
#Burla, M.C., Camalli, M., Carrozzini, B., Cascarano, G., Giacovazzo, C.,
#Polidori, G., Spagna, R.
#SIR2002: the program, J. Appl. Cryst, (2003). 36, 1103


# use this reference if SIR2011 was used for solving of the structure
#Burla, M.C., Caliandro, R., Camalli, M., Carrozzini, B., Cascarano,
#G.L., Giacovazzo, C., Mallamo. M., Mazzone, A., Polidori, G., Spagna, R.
#SIR2011: a new package for crystal structure determination and refinement,
#J.Appl.Cryst. (2012) 45, 357-361

# enable this reference if bond valences were calculated
#Brown, I. D. (1996). J. Appl. Cryst. 29, 479-480.

# enable this reference if Xshape wase used for crystal shape refinement
#Stoe & Cie (1998). X-SHAPE. Stoe & Cie, Darmstadt, Germany.


# enable this reference if Flack coefficient was refined
#Flack, H. D. (1983). Acta Cryst. A39, 876-881.
;
_publ_section_figure_captions
; ?
;
_publ_section_table_legends
; ?
;

#=======================================================================
data_I
#=======================================================================

# 5. CHEMICAL DATA

_chemical_name_systematic
; ?
;
_chemical_name_common                    ?
_chemical_formula_moiety                 ?
_chemical_formula_structural             ?
_chemical_formula_analytical             ?
_chemical_formula_iupac                  ?
_chemical_formula_sum                    'C1 Mg1 O3'
_chemical_formula_weight                 83.3
_chemical_melting_point                  ?
_chemical_compound_source                ?
_chemical_absolute_configuration         .

#=======================================================================

# 6. CRYSTAL DATA

_symmetry_cell_setting                   monoclinic
_symmetry_space_group_name_H-M           'C 1 2/m 1'
_symmetry_space_group_name_Hall          '-C 2y'
_symmetry_Int_Tables_number              12

loop_
 _space_group_symop_id
 _space_group_symop_operation_xyz
 1   x,y,z
 2   -x,y,-z
 3   -x,-y,-z
 4   x,-y,z
 5   x+1/2,y+1/2,z
 6   -x+1/2,y+1/2,-z
 7   -x+1/2,-y+1/2,-z
 8   x+1/2,-y+1/2,z

_cell_length_a                           9.00(18)
_cell_length_b                           6.465(2)
_cell_length_c                           6.8710(7)
_cell_angle_alpha                        90.000(16)
_cell_angle_beta                         103.737(14)
_cell_angle_gamma                        90.00(2)
_cell_volume                             348.04(14)

loop_
 _twin_individual_id
 _twin_individual_mass_fraction_refined
 _twin_individual_twin_matrix_11
 _twin_individual_twin_matrix_12
 _twin_individual_twin_matrix_13
 _twin_individual_twin_matrix_21
 _twin_individual_twin_matrix_22
 _twin_individual_twin_matrix_23
 _twin_individual_twin_matrix_31
 _twin_individual_twin_matrix_32
 _twin_individual_twin_matrix_33
 ? ? ? ? ? ? ? ? ? ? ?

_cell_formula_units_Z                    12

_cell_measurement_reflns_used            214
_cell_measurement_theta_min              1.62
_cell_measurement_theta_max              16.86
_cell_measurement_temperature            293
_cell_special_details
; ?
;

_exptl_crystal_density_diffrn            4.8272
_exptl_crystal_density_meas              ?
_exptl_crystal_density_method            ?
_exptl_crystal_F_000                     480

_exptl_absorpt_coefficient_mu            0.131
_exptl_crystal_description               ?
_exptl_crystal_size_max                  ?
_exptl_crystal_size_mid                  ?
_exptl_crystal_size_min                  ?
_exptl_crystal_size_rad                  ?
_exptl_crystal_colour                    ?
_exptl_absorpt_correction_type           'multi-scan'
_exptl_absorpt_process_details
;
CrysAlisPro 1.171.42.54a (Rigaku Oxford Diffraction, 2022)
Empirical absorption correction using spherical harmonics,
implemented in SCALE3 ABSPACK scaling algorithm.
;
_exptl_absorpt_correction_T_min          0.17
_exptl_absorpt_correction_T_max          1
loop_
 _exptl_crystal_face_index_h
 _exptl_crystal_face_index_k
 _exptl_crystal_face_index_l
 _exptl_crystal_face_perp_dist
 ? ? ? ?

#=======================================================================

# 7. EXPERIMENTAL DATA

_exptl_special_details                   ?

_diffrn_ambient_temperature              293
_diffrn_source                           'synchrotron'
_diffrn_source_power                     ?
_diffrn_source_voltage                   ?
_diffrn_source_current                   ?
_diffrn_radiation_type                   'X-ray'
_diffrn_radiation_source                 ?
_diffrn_radiation_wavelength             0.2843
_diffrn_radiation_monochromator          'synchrotron'
_diffrn_measurement_device               'four-circle diffractometer'
_diffrn_measurement_device_type          'esperanto-CrysAlisPro-abstract goniometer imported esperanto images'
_diffrn_detector                         'Hybrid Pixel Array Detector'
_diffrn_detector_area_resol_mean         13.3333
_diffrn_measurement_method               '\w scans'
_diffrn_measurement_specimen_support     ?

_diffrn_reflns_number                    687
_diffrn_reflns_theta_min                 1.63
_diffrn_reflns_theta_max                 17.73
_diffrn_reflns_theta_full                13.96
_diffrn_measured_fraction_theta_max      0.31
_diffrn_measured_fraction_theta_full     0.47
_diffrn_reflns_av_R_equivalents          0.0116
_diffrn_reflns_av_unetI/netI             0.0485
_diffrn_reflns_limit_h_min               -10
_diffrn_reflns_limit_h_max               13
_diffrn_reflns_limit_k_min               -8
_diffrn_reflns_limit_k_max               7
_diffrn_reflns_limit_l_min               -12
_diffrn_reflns_limit_l_max               11
_diffrn_reflns_reduction_process         ?

_diffrn_standards_number                 ?
_diffrn_standards_interval_count         ?
_diffrn_standards_interval_time          ?
_diffrn_standards_decay_%                ?
loop_
_diffrn_standard_refln_index_h
_diffrn_standard_refln_index_k
_diffrn_standard_refln_index_l
  ? ? ?

_diffrn_radiation_probe                  X-ray

#=======================================================================

# 8. REFINEMENT DATA

_refine_special_details
; ?
;

_reflns_number_total                     575
_reflns_number_gt                        357
_reflns_threshold_expression             'I>3\s(I)'

_refine_ls_structure_factor_coef         F
_refine_ls_R_factor_gt                   0.3880
_refine_ls_wR_factor_gt                  0.4188
_refine_ls_R_factor_all                  0.5433
_refine_ls_wR_factor_ref                 0.4282
_refine_ls_goodness_of_fit_ref           16.74
_refine_ls_goodness_of_fit_gt            21.18
_refine_ls_restrained_S_gt               ?
_refine_ls_restrained_S_all              ?
_refine_ls_number_reflns                 575
_refine_ls_number_parameters             34
_refine_ls_number_restraints             0
_refine_ls_number_constraints            0
_refine_ls_weighting_scheme              sigma
_refine_ls_weighting_details             'w=1/(\s^2^(F)+0.0001F^2^)'
_refine_ls_hydrogen_treatment            ?
_refine_ls_shift/su_max                  0.1701
_refine_ls_shift/su_mean                 0.0457
_refine_diff_density_max                 ?
_refine_diff_density_min                 ?
_refine_ls_extinction_method             'none'
_refine_ls_extinction_coef               ?
_refine_ls_extinction_expression         ?
_refine_ls_abs_structure_details         ?
_refine_ls_abs_structure_Flack           ?
_refine_ls_abs_structure_Rogers          ?

loop_
 _atom_type_symbol
 _atom_type_scat_dispersion_real
 _atom_type_scat_dispersion_imag
 _atom_type_scat_source
 C   -0.0010  0.0002
 'International Tables Vol C tables 4.2.6.8 and 6.1.1.1'
 Mg   0.0024  0.0051
 'International Tables Vol C tables 4.2.6.8 and 6.1.1.1'
 O   -0.0011  0.0008
 'International Tables Vol C tables 4.2.6.8 and 6.1.1.1'

_computing_data_collection
 'CrysAlisPro 1.171.42.54a (Rigaku OD, 2022)'
_computing_cell_refinement
 'CrysAlisPro 1.171.42.54a (Rigaku OD, 2022)'
_computing_data_reduction
 'CrysAlisPro 1.171.42.54a (Rigaku OD, 2022)'
_computing_structure_solution            ?
_computing_structure_refinement          ?
_computing_molecular_graphics            ?
_computing_publication_material          ?

loop_
 _restr_distance_atom_site_label_1
 _restr_distance_site_symmetry_1
 _restr_distance_atom_site_label_2
 _restr_distance_site_symmetry_2
 _restr_distance_target
 _restr_distance_target_weight_param
 ? ? ? ? ? ?

loop_
 _restr_angle_atom_site_label_1
 _restr_angle_site_symmetry_1
 _restr_angle_atom_site_label_2
 _restr_angle_site_symmetry_2
 _restr_angle_atom_site_label_3
 _restr_angle_site_symmetry_3
 _restr_angle_target
 _restr_angle_target_weight_param
 ? ? ? ? ? ? ? ?

loop_
 _restr_torsion_atom_site_label_1
 _restr_torsion_site_symmetry_1
 _restr_torsion_atom_site_label_2
 _restr_torsion_site_symmetry_2
 _restr_torsion_atom_site_label_3
 _restr_torsion_site_symmetry_3
 _restr_torsion_atom_site_label_4
 _restr_torsion_site_symmetry_4
 _restr_torsion_angle_target
 _restr_torsion_weight_param
 ? ? ? ? ? ? ? ? ? ?

loop_
 _restr_equal_distance_atom_site_label_1
 _restr_equal_distance_site_symmetry_1
 _restr_equal_distance_atom_site_label_2
 _restr_equal_distance_site_symmetry_2
 _restr_equal_distance_class_class_id
 _restr_equal_distance_class_target_weight_param
 ? ? ? ? ? ?

loop_
 _restr_equal_angle_atom_site_label_1
 _restr_equal_angle_site_symmetry_1
 _restr_equal_angle_atom_site_label_2
 _restr_equal_angle_site_symmetry_2
 _restr_equal_angle_atom_site_label_3
 _restr_equal_angle_site_symmetry_3
 _restr_equal_angle_class_class_id
 _restr_equal_angle_class_target_weight_param
 ? ? ? ? ? ? ? ?

loop_
 _restr_equal_torsion_atom_site_label_1
 _restr_equal_torsion_site_symmetry_1
 _restr_equal_torsion_atom_site_label_2
 _restr_equal_torsion_site_symmetry_2
 _restr_equal_torsion_atom_site_label_3
 _restr_equal_torsion_site_symmetry_3
 _restr_equal_torsion_atom_site_label_4
 _restr_equal_torsion_site_symmetry_4
 _restr_equal_torsion_class_class_id
 _restr_equal_torsion_class_target_weight_param
 ? ? ? ? ? ? ? ? ? ?


#=======================================================================

# 9. ATOMIC COORDINATES AND DISPLACEMENT PARAMETERS

loop_
 _atom_site_label
 _atom_site_type_symbol
 _atom_site_fract_x
 _atom_site_fract_y
 _atom_site_fract_z
 _atom_site_adp_type
 _atom_site_U_iso_or_equiv
 _atom_site_site_symmetry_multiplicity
 _atom_site_occupancy
 _atom_site_calc_flag
 _atom_site_refinement_flags
 _atom_site_disorder_assembly
 _atom_site_disorder_group
  Mg1 Mg 0.7003(18) 1 0.0199(17) Uiso 0.002(2) 4 1 d . . .
  Mg2 Mg 0.8786(15) 0.769(2) 0.3320(16) Uiso 0.011(3) 8 1 d . . .
  O1 O 0.972(4) 1 0.395(5) Uiso 0.012(5) 4 1 d . . .
  O2 O 0.777(3) 0.5 0.421(3) Uiso 0.001(4) 4 1 d . . .
  O4 O 0.5 1.206(6) 0 Uiso 0.008(5) 4 1 d . . .
  O5 O 0.6449(16) 0.674(3) 0.1461(16) Uiso -0.0074(19) 8 1 d . . .
  O6 O 0.588(3) 1 0.346(3) Uiso -0.002(3) 4 1 d . . .
  O7 O 0.745(2) 1 0.278(2) Uiso -0.008(3) 4 1 d . . .
  O8 O 0.865(3) 0.803(5) 0.062(4) Uiso 0.018(5) 8 1 d . . .
  C1 C 0.940(2) 0.669(4) 0.266(3) Uiso -0.003(3) 8 1 d . . .

loop_
 _atom_site_aniso_label
 _atom_site_aniso_type_symbol
 _atom_site_aniso_U_11
 _atom_site_aniso_U_22
 _atom_site_aniso_U_33
 _atom_site_aniso_U_12
 _atom_site_aniso_U_13
 _atom_site_aniso_U_23
 ? ? ? ? ? ? ? ?

loop_
 _jana_atom_site_ADP_C_label
 _jana_atom_site_ADP_C_type_symbol
 _jana_atom_site_ADP_C_111
 _jana_atom_site_ADP_C_112
 _jana_atom_site_ADP_C_113
 _jana_atom_site_ADP_C_122
 _jana_atom_site_ADP_C_123
 _jana_atom_site_ADP_C_133
 _jana_atom_site_ADP_C_222
 _jana_atom_site_ADP_C_223
 _jana_atom_site_ADP_C_233
 _jana_atom_site_ADP_C_333
 ? ? ? ? ? ? ? ? ? ? ? ?

loop_
 _jana_atom_site_ADP_D_label
 _jana_atom_site_ADP_D_type_symbol
 _jana_atom_site_ADP_D_1111
 _jana_atom_site_ADP_D_1112
 _jana_atom_site_ADP_D_1113
 _jana_atom_site_ADP_D_1122
 _jana_atom_site_ADP_D_1123
 _jana_atom_site_ADP_D_1133
 _jana_atom_site_ADP_D_1222
 _jana_atom_site_ADP_D_1223
 _jana_atom_site_ADP_D_1233
 _jana_atom_site_ADP_D_1333
 _jana_atom_site_ADP_D_2222
 _jana_atom_site_ADP_D_2223
 _jana_atom_site_ADP_D_2233
 _jana_atom_site_ADP_D_2333
 _jana_atom_site_ADP_D_3333
 ? ? ? ? ? ? ? ? ? ? ? ? ? ? ? ? ?

loop_
 _jana_atom_site_ADP_E_label
 _jana_atom_site_ADP_E_type_symbol
 _jana_atom_site_ADP_E_11111
 _jana_atom_site_ADP_E_11112
 _jana_atom_site_ADP_E_11113
 _jana_atom_site_ADP_E_11122
 _jana_atom_site_ADP_E_11123
 _jana_atom_site_ADP_E_11133
 _jana_atom_site_ADP_E_11222
 _jana_atom_site_ADP_E_11223
 _jana_atom_site_ADP_E_11233
 _jana_atom_site_ADP_E_11333
 _jana_atom_site_ADP_E_12222
 _jana_atom_site_ADP_E_12223
 _jana_atom_site_ADP_E_12233
 _jana_atom_site_ADP_E_12333
 _jana_atom_site_ADP_E_13333
 _jana_atom_site_ADP_E_22222
 _jana_atom_site_ADP_E_22223
 _jana_atom_site_ADP_E_22233
 _jana_atom_site_ADP_E_22333
 _jana_atom_site_ADP_E_23333
 _jana_atom_site_ADP_E_33333
 ? ? ? ? ? ? ? ? ? ? ? ? ? ? ? ? ? ? ? ? ? ? ?

loop_
 _jana_atom_site_ADP_F_label
 _jana_atom_site_ADP_F_type_symbol
 _jana_atom_site_ADP_F_111111
 _jana_atom_site_ADP_F_111112
 _jana_atom_site_ADP_F_111113
 _jana_atom_site_ADP_F_111122
 _jana_atom_site_ADP_F_111123
 _jana_atom_site_ADP_F_111133
 _jana_atom_site_ADP_F_111222
 _jana_atom_site_ADP_F_111223
 _jana_atom_site_ADP_F_111233
 _jana_atom_site_ADP_F_111333
 _jana_atom_site_ADP_F_112222
 _jana_atom_site_ADP_F_112223
 _jana_atom_site_ADP_F_112233
 _jana_atom_site_ADP_F_112333
 _jana_atom_site_ADP_F_113333
 _jana_atom_site_ADP_F_122222
 _jana_atom_site_ADP_F_122223
 _jana_atom_site_ADP_F_122233
 _jana_atom_site_ADP_F_122333
 _jana_atom_site_ADP_F_123333
 _jana_atom_site_ADP_F_133333
 _jana_atom_site_ADP_F_222222
 _jana_atom_site_ADP_F_222223
 _jana_atom_site_ADP_F_222233
 _jana_atom_site_ADP_F_222333
 _jana_atom_site_ADP_F_223333
 _jana_atom_site_ADP_F_233333
 _jana_atom_site_ADP_F_333333
 ? ? ? ? ? ? ? ? ? ? ? ? ? ? ? ? ? ? ? ? ? ? ? ? ? ? ? ? ? ?


#=======================================================================

# 10. MOLECULAR GEOMETRY


loop_
 _geom_bond_atom_site_label_1
 _geom_bond_atom_site_label_2
 _geom_bond_site_symmetry_1
 _geom_bond_site_symmetry_2
 _geom_bond_distance
 _geom_bond_publ_flag
 ? ? ? ? ? ?

loop_
 _geom_angle_atom_site_label_1
 _geom_angle_atom_site_label_2
 _geom_angle_atom_site_label_3
 _geom_angle_site_symmetry_1
 _geom_angle_site_symmetry_2
 _geom_angle_site_symmetry_3
 _geom_angle
 _geom_angle_publ_flag
 ? ? ? ? ? ? ? ?

loop_
 _geom_torsion_atom_site_label_1
 _geom_torsion_atom_site_label_2
 _geom_torsion_atom_site_label_3
 _geom_torsion_atom_site_label_4
 _geom_torsion_site_symmetry_1
 _geom_torsion_site_symmetry_2
 _geom_torsion_site_symmetry_3
 _geom_torsion_site_symmetry_4
 _geom_torsion
 _geom_torsion_publ_flag
 ? ? ? ? ? ? ? ? ? ?

loop_
 _geom_hbond_atom_site_label_D
 _geom_hbond_atom_site_label_H
 _geom_hbond_atom_site_label_A
 _geom_hbond_site_symmetry_D
 _geom_hbond_site_symmetry_H
 _geom_hbond_site_symmetry_A
 _geom_hbond_distance_DH
 _geom_hbond_distance_HA
 _geom_hbond_distance_DA
 _geom_hbond_angle_DHA
 _geom_hbond_publ_flag
 ? ? ? ? ? ? ? ? ? ? ?


#=======================================================================

# 11. STRUCTURE-FACTOR LIST

loop_
 _refln_index_h
 _refln_index_k
 _refln_index_l
 _refln_F_squared_calc
 _refln_F_squared_meas
 _refln_F_squared_sigma
 _refln_observed_status
   1   1   0    26.69    16.77     3.14 o
   3   1   0   167.56  2485.60    29.32 o
   2   2   0  4070.44  3563.43    19.86 o
   4   2   0 14304.90 10085.00    37.19 o
   6   2   0  1049.01  2325.49    42.24 o
   8   2   0  2031.16  4913.93    75.61 o
  10   2   0   405.00   956.03    88.27 o
  12   2   0   270.94    40.69   100.62 <
   3   3   0 17352.20 25050.80    45.02 o
   5   3   0   109.15  1302.25    19.51 o
   7   3   0    81.18   454.40    30.20 o
   9   3   0   747.17   558.67    40.97 o
  11   3   0   278.20   233.80    52.85 o
   4   4   0     0.63    -3.34    12.11 <
   6   4   0   265.97   474.92    19.84 o
   8   4   0   641.68    17.94    34.70 <
  10   4   0   548.60    77.17    41.98 <
  12   4   0    11.64   313.89    48.13 o
   5   5   0  1769.51  1332.15    30.78 o
   7   5   0  3650.77  4299.45    34.48 o
   9   5   0    55.91    33.51    39.42 <
  11   5   0   466.17   130.80    35.42 o
   6   6   0    35.63    10.47    31.89 <
   8   6   0   182.34   -17.67    25.78 <
  10   6   0   564.91   784.38    45.04 o
   7   7   0   669.24   619.34    44.66 o
   9   7   0   221.20   264.01    30.85 o
  -3   1   1   457.17   415.28    23.42 o
  -1   1   1   720.52     8.12     2.25 o
   1   1   1   302.62    43.70     2.59 o
   3   1   1   428.71   414.51    15.80 o
   5   1   1   378.11   923.48    51.70 o
  13   1   1  1929.66   739.65   133.49 o
 -12   2   1   154.58   459.28   120.52 o
 -10   2   1   514.66  1363.50    97.98 o
  -8   2   1  1866.87  1102.05    66.09 o
  -6   2   1  1480.12   647.30    37.32 o
  -4   2   1    62.35  6174.58    31.58 o
  -2   2   1  1301.80   118.46     8.18 o
   2   2   1 10226.50  8734.49    21.20 o
   4   2   1  1525.89  2407.03    21.65 o
   6   2   1   582.13   918.85    32.17 o
   8   2   1     1.08    74.44    42.90 <
  10   2   1   204.14   141.41    61.36 <
  12   2   1   394.67     8.81    77.20 <
 -11   3   1  1840.51    28.55    61.55 <
  -9   3   1    42.77     4.56    44.75 <
  -7   3   1   415.42  1495.56    37.20 o
  -5   3   1  1853.36   922.51    30.60 o
  -3   3   1   910.79     8.90    11.46 <
   3   3   1  3590.50  7166.70    24.38 o
   5   3   1   108.07   215.07    14.64 o
   7   3   1     1.70    25.31    26.85 <
   9   3   1   542.88   388.17    36.73 o
  11   3   1   280.65   455.90    46.60 o
 -12   4   1    27.51    36.52    48.04 <
 -10   4   1   146.83    15.98    41.66 <
  -8   4   1  1168.00  3513.38    48.28 o
  -6   4   1  2448.12  1021.35    37.86 o
  -4   4   1   960.63    37.45    12.39 o
   4   4   1    60.54   220.04    19.29 o
   6   4   1   144.03    12.39    17.97 <
   8   4   1   138.51   322.00    35.65 o
  10   4   1  1336.59  1041.36    41.65 o
  12   4   1     2.04     0.25    44.51 <
 -11   5   1   710.24     2.42    37.34 <
  -9   5   1   134.53   459.68    42.51 o
  -7   5   1   949.54   860.79    25.58 o
  -5   5   1  1130.26  1459.64    31.58 o
   5   5   1   600.18   261.73    25.88 o
   7   5   1   299.83   147.90    20.87 o
   9   5   1    12.55    71.75    35.15 <
  11   5   1    71.91    63.62    34.14 <
 -10   6   1   152.78     7.99    43.77 <
  -8   6   1     9.55    95.47    25.37 o
  -6   6   1   297.64    11.23    31.42 <
   6   6   1  3437.42  9593.47    67.32 o
   8   6   1    26.05    43.70    24.95 <
  10   6   1   168.33   149.01    39.29 o
  -9   7   1   186.82   328.31    32.07 o
  -7   7   1    56.81   192.76    43.26 o
   7   7   1     9.91   -39.13    39.55 <
   9   7   1    36.73     4.02    28.73 <
  -3   1   2  6404.26 13329.10    69.75 o
  -1   1   2   353.22   699.76     5.44 o
   1   1   2     2.21    26.66     4.45 o
   3   1   2   100.84  5695.62    28.38 o
   5   1   2  1046.66  2014.82    46.82 o
   9   1   2   601.33   -23.50    85.18 <
  11   1   2    11.81   181.43    97.17 <
  13   1   2    11.74   137.82   103.90 <
 -12   2   2   688.40   185.12   139.47 <
 -10   2   2   130.40    32.62   105.24 <
  -6   2   2  3692.45  2959.02    51.31 o
  -4   2   2  1649.86   813.27    18.80 o
  -2   2   2  5991.89  9633.49    22.91 o
   2   2   2  1192.12  2863.39    18.92 o
   4   2   2    15.31    -0.94    12.85 <
   6   2   2  2146.24    60.65    21.82 <
   8   2   2   621.40   354.60    38.09 o
  10   2   2    92.17   435.45    52.47 o
  12   2   2  1142.17   277.91    59.69 o
 -11   3   2    55.07   917.48    67.28 o
  -7   3   2  1444.49  2238.60    40.76 o
  -5   3   2   332.46    74.44    17.23 o
  -3   3   2  2354.83  2186.11    15.64 o
   3   3   2    92.07   203.56    13.43 o
   5   3   2  2439.74  1700.26    19.95 o
   7   3   2   990.03  2635.18    37.67 o
   9   3   2   584.51   -19.11    33.06 <
  11   3   2    69.82    11.59    39.29 <
 -10   4   2  1341.19   641.67    48.27 o
  -8   4   2  1251.04  2597.77    82.97 o
  -6   4   2   475.56   350.67    22.66 o
  -4   4   2   269.92   192.42    13.87 o
   4   4   2   803.79  1278.43    23.60 o
   6   4   2   336.61   500.86    19.53 o
   8   4   2   560.91   928.74    35.78 o
  10   4   2    98.46    16.92    31.59 <
  12   4   2   522.93   -13.16    37.83 <
 -11   5   2   163.31   431.42    42.05 o
  -9   5   2    17.97    41.91    78.52 <
  -7   5   2   126.99   769.82    29.70 o
  -5   5   2  1519.39   734.08    18.97 o
   5   5   2   301.41  1255.69    29.45 o
   7   5   2    55.28    14.30    19.99 <
   9   5   2   979.38    32.47    34.08 <
  11   5   2     0.00   137.14    31.43 o
 -10   6   2  1450.45    11.39    45.00 <
  -8   6   2   522.56    -5.12    27.55 <
   6   6   2     1.59     9.70    30.23 <
   8   6   2   315.68    63.12    25.53 <
  10   6   2   530.32  2519.00    47.31 o
  -9   7   2    13.95     4.37    55.95 <
   7   7   2    27.54   170.80    37.60 o
   9   7   2    23.81   103.33    44.75 <
  -8   8   2  1286.40  3196.24    66.98 o
  -3   1   3   346.79  1609.18    34.50 o
  -1   1   3   258.82    91.53     5.09 o
   1   1   3  1634.13   749.88     7.55 o
   3   1   3  4387.57  6885.25    29.67 o
   5   1   3   281.41   777.06    31.62 o
   7   1   3  1321.86  1752.12    56.48 o
   9   1   3   191.19   118.57    66.29 <
  13   1   3   258.64   -44.91    76.56 <
 -10   2   3   111.24   207.83   115.36 <
  -8   2   3  1786.55  2575.97    95.25 o
  -6   2   3   768.88   972.54    44.49 o
  -4   2   3   672.27   140.88    18.33 o
  -2   2   3  1267.25  8390.28    22.56 o
   2   2   3  1571.50  2502.64    17.26 o
   4   2   3  2081.95   821.55    16.27 o
   6   2   3   260.00   997.01    25.49 o
   8   2   3   710.86  1854.02    39.09 o
  10   2   3    20.09  1229.23    45.82 o
  12   2   3    23.20    15.61    43.51 <
 -11   3   3  1293.30  3976.77    93.24 o
  -9   3   3   147.19  1167.56    56.46 o
  -7   3   3   229.31    14.89    29.70 <
  -5   3   3   900.17  1754.44    24.92 o
  -3   3   3   513.12   215.10    10.07 o
   3   3   3  1036.30   533.21    15.31 o
   5   3   3   255.08  1205.42    18.17 o
   7   3   3  1967.75  1225.00    26.36 o
   9   3   3   542.31    93.41    31.52 <
 -10   4   3     0.22   128.92    45.89 <
  -8   4   3   251.79   -26.21    40.71 <
  -6   4   3   130.11   465.57    21.43 o
  -4   4   3  1436.25  1740.63    18.66 o
   4   4   3   371.20   455.15    19.73 o
   6   4   3    53.58   223.70    17.51 o
   8   4   3   435.90    22.30    21.47 <
  10   4   3   415.59    83.56    26.12 o
  12   4   3   316.64   309.14    37.21 o
 -11   5   3   331.60   -19.00    42.70 <
  -9   5   3   178.19   113.31    43.80 <
  -7   5   3    17.55   204.59    24.10 o
  -5   5   3   451.71    97.84    17.83 o
   5   5   3   763.72   615.35    23.92 o
   7   5   3   760.36  1623.17    25.95 o
   9   5   3    67.44   257.06    26.81 o
 -10   6   3     0.11    89.82    34.53 <
  -8   6   3   610.50  1759.00    34.58 o
  -6   6   3   279.44    78.57    22.55 o
   6   6   3   365.78   136.29    31.51 o
   8   6   3  1106.66    31.35    22.17 <
  10   6   3  1329.84   529.35    41.55 o
  -9   7   3    73.14    11.83    31.75 <
  -7   7   3   110.26     9.52    41.69 <
   7   7   3   684.13   203.37    37.62 o
  -8   8   3    23.34    26.30    50.03 <
  -3   1   4   775.27   308.24    25.79 o
  -1   1   4  8563.97  8869.51    21.45 o
   3   1   4     0.61   272.16    10.10 o
   5   1   4   651.24   412.81    22.40 o
   7   1   4   271.93   315.92    36.17 o
   9   1   4    44.85    63.15    49.19 <
  11   1   4   106.94     1.48    56.16 <
  13   1   4     9.30   -50.24    58.40 <
 -12   2   4   446.13  2606.89   197.51 o
 -10   2   4   557.29  1048.37   128.86 o
  -8   2   4     8.05    29.80    80.26 <
  -4   2   4  1708.59  4609.60    35.88 o
  -2   2   4  1247.34  1493.44    11.80 o
   2   2   4 19530.60 18105.70    40.31 o
   4   2   4   233.70   129.96    15.66 o
   6   2   4   462.59   499.74    21.99 o
  10   2   4   790.44   433.55    35.23 o
  12   2   4     3.66     9.07    36.64 <
 -11   3   4    63.11    75.50    71.11 <
  -9   3   4   309.53    69.01    53.52 <
  -7   3   4   334.91    32.33    29.54 <
  -5   3   4  7353.83 24418.40    67.36 o
  -3   3   4  1258.38   374.94    12.19 o
   3   3   4  1253.51  1787.55    20.37 o
   5   3   4   154.64  1314.11    18.57 o
   7   3   4   184.03   487.00    20.89 o
   9   3   4  1169.31  1090.31    30.76 o
  11   3   4   328.35    58.94    34.26 <
 -10   4   4    59.76    48.40    47.33 <
  -8   4   4   113.99  1852.48    44.55 o
  -6   4   4  3403.69  3276.02    30.76 o
  -4   4   4   203.82   170.10    15.38 o
   4   4   4   711.06  1780.22    25.47 o
   6   4   4   399.28   216.21    19.84 o
  10   4   4     2.24    21.13    24.94 <
  12   4   4   168.18    87.02    30.65 <
 -11   5   4   122.40   291.75    47.89 o
  -9   5   4   144.24   -36.50    42.98 <
  -7   5   4   163.14   203.47    24.60 o
  -5   5   4    15.56    91.82    18.10 o
   5   5   4   943.80   515.81    24.77 o
   7   5   4   928.26    65.00    20.07 o
   9   5   4   161.58    60.91    32.33 <
  11   5   4   189.20    33.87    27.27 <
 -10   6   4   291.51   438.00    51.06 o
  -8   6   4  1573.33  1265.84    32.76 o
  -6   6   4   104.69   139.39    21.61 o
   8   6   4    82.46   641.62    40.38 o
  10   6   4    36.03   177.87    37.31 o
  -9   7   4   524.87   141.01    33.86 o
  -7   7   4   133.52   127.77    42.47 o
   7   7   4    26.29   236.73    34.19 o
   9   7   4    19.75    27.37    42.32 <
  -8   8   4    30.61   333.16    50.51 o
   4   0   5  2648.74   230.18    26.76 o
  12   0   5  1648.19   188.49    61.67 o
  -3   1   5  3399.59  3129.75    35.92 o
  -1   1   5   279.86   650.52     8.36 o
   3   1   5    26.95    41.11     8.57 o
   7   1   5   104.04    51.94    24.52 <
   9   1   5    30.92    34.53    33.95 <
  11   1   5    13.53     6.82    36.85 <
  13   1   5     0.16    97.99    41.07 <
 -12   2   5  2407.47  1541.57   190.04 o
 -10   2   5     3.85    54.17   131.57 <
  -8   2   5   259.49    45.94    80.43 <
  -6   2   5   807.80   901.50    42.31 o
  -4   2   5  2254.63  2698.38    29.66 o
  -2   2   5   310.82   569.69    10.77 o
   0   2   5  2610.90  2100.70    14.99 o
   2   2   5    28.44     2.43     8.95 <
   4   2   5     0.79   225.77    17.65 o
   6   2   5   140.71    81.02    15.31 o
   8   2   5   896.45   572.31    26.01 o
  10   2   5    98.24   445.97    28.27 o
  12   2   5    41.62   130.34    30.37 o
 -11   3   5    11.11   636.27    78.68 o
  -9   3   5   584.78   145.76    51.17 <
  -7   3   5   848.75   847.70    33.80 o
  -5   3   5  2607.16    39.87    24.26 <
  -3   3   5  1168.66   841.50    13.51 o
  -1   3   5   530.01   110.88    13.15 o
   5   3   5   376.07  1314.15    34.99 o
   7   3   5  1155.65    75.85    17.27 o
   9   3   5    94.54   854.72    24.78 o
  11   3   5    15.72    48.63    27.01 <
 -10   4   5   669.71   533.50    47.64 o
  -8   4   5   235.29   694.39    33.87 o
  -6   4   5    31.83    11.05    24.15 <
  -4   4   5   297.59     6.72    14.16 <
  -2   4   5   963.66   468.56    18.02 o
   4   4   5   833.03  1781.32    25.15 o
   6   4   5   367.96   125.96    28.96 o
   8   4   5   831.02   894.56    24.44 o
  10   4   5     5.29   154.58    22.42 o
  12   4   5    13.46     9.94    24.01 <
 -11   5   5    28.84    10.37    42.14 <
  -9   5   5  1487.60   136.20    33.05 o
  -7   5   5   132.34    64.46    24.56 <
  -5   5   5    56.85   354.25    19.24 o
   5   5   5   951.44   876.23    28.28 o
   7   5   5     6.66   114.14    34.19 o
   9   5   5    45.24    38.32    23.23 <
  11   5   5    78.62    31.45    23.65 <
 -10   6   5   313.11   208.16    52.40 o
  -8   6   5   130.50     8.11    30.32 <
  -6   6   5  1454.43  1317.87    41.56 o
   6   6   5    86.96    20.16    27.98 <
   8   6   5    50.22    28.19    39.57 <
  10   6   5   571.57   675.58    26.39 o
  -9   7   5   128.14    38.36    35.12 <
  -7   7   5   490.21    30.23    43.57 <
   7   7   5   102.82   -17.56    30.66 <
   9   7   5   170.91    54.87    44.52 <
  -8   8   5     1.97   403.57    49.76 o
   4   0   6  2183.22    33.27    13.90 <
   6   0   6    25.91    33.11    29.53 <
   8   0   6  1551.93   -13.61    41.22 <
  10   0   6  1136.29    29.98    43.83 <
  12   0   6   223.49    24.46    45.90 <
  -5   1   6     0.11   516.35    66.47 o
  -3   1   6   452.93   760.15    22.37 o
   5   1   6   171.67     0.87    12.44 <
   7   1   6   350.72   530.91    20.63 o
   9   1   6   160.27    78.36    25.49 o
  11   1   6   175.14     3.21    29.74 <
  13   1   6    27.69    20.83    34.95 <
 -12   2   6    12.00   140.92   181.84 <
 -10   2   6   113.32    55.59   124.37 <
  -8   2   6  2901.14  2789.18    82.39 o
  -6   2   6   203.23     2.78    31.62 <
  -4   2   6   202.80   331.37    19.54 o
  -2   2   6   458.14    80.75    13.29 o
   0   2   6  1066.94    -1.24     7.87 <
   2   2   6   435.18     5.45    10.48 <
   6   2   6     0.23     6.38    13.11 <
   8   2   6  1237.42    91.71    19.82 o
  10   2   6   118.92   361.04    25.66 o
  12   2   6     9.83    90.51    27.89 o
 -11   3   6   634.85   841.02    78.51 o
  -9   3   6  2297.67  2929.62    64.48 o
  -7   3   6    30.32   357.82    32.96 o
  -5   3   6    23.43   179.15    18.17 o
  -3   3   6   826.95   638.81    14.44 o
  -1   3   6   399.91  1411.26    17.09 o
   3   3   6    63.15   105.42    14.76 o
   5   3   6   384.00  1264.67    39.99 o
   7   3   6   151.28   239.41    17.39 o
   9   3   6   109.69    93.15    18.76 o
  11   3   6  1060.47    86.17    21.15 o
 -10   4   6   377.79   174.90    48.57 o
  -8   4   6   202.87   338.88    33.16 o
  -6   4   6    18.27   288.78    27.87 o
  -4   4   6  2054.71  1207.43    17.85 o
  -2   4   6   496.88  1273.55    21.44 o
   4   4   6   102.72    40.63    19.69 <
   6   4   6     3.25   210.88    34.98 o
   8   4   6     9.15    26.00    19.25 <
  10   4   6   444.11    94.39    19.78 o
  12   4   6    56.87   175.15    21.93 o
  -9   5   6     0.09    32.63    32.19 <
  -7   5   6   109.62    -0.39    29.34 <
  -5   5   6    10.49   662.09    19.78 o
  -3   5   6   999.64  1006.27    24.92 o
   5   5   6   574.65    39.23    22.53 <
   7   5   6   295.84   442.53    39.80 o
   9   5   6    85.34   169.26    20.41 o
  11   5   6   430.69     5.87    22.43 <
 -10   6   6    19.49   -19.82    34.87 <
  -8   6   6   818.87   353.74    33.83 o
  -6   6   6  1658.85  2786.38    45.57 o
  -4   6   6     3.69    90.10    24.23 o
   6   6   6     1.44   273.27    27.74 o
   8   6   6   198.31   152.18    41.17 o
  -9   7   6   109.70   248.29    36.60 o
  -7   7   6   115.26   138.78    40.16 o
   7   7   6   265.54   195.44    28.67 o
   9   7   6   271.06    15.59    49.60 <
  -8   8   6   293.45   160.47    47.09 o
   4   0   7   681.54   394.38    10.28 o
   6   0   7   748.23   430.28    19.43 o
   8   0   7    22.45  1086.08    31.25 o
  10   0   7   255.69    71.88    29.95 <
  12   0   7    81.47   384.74    34.80 o
  -3   1   7    22.06    77.47    15.45 o
   5   1   7   404.08   384.27    11.99 o
   7   1   7   335.19   168.86    17.03 o
   9   1   7   610.97    93.34    20.43 o
  11   1   7   120.74    34.16    22.17 <
 -12   2   7     1.74   187.23   160.28 <
 -10   2   7   488.61   180.47   110.97 <
  -8   2   7     7.20    85.88    62.60 <
  -6   2   7   444.77    13.30    28.78 <
   0   2   7   375.12   962.37    11.51 o
   2   2   7  4353.08  4414.85    20.47 o
   6   2   7    28.80    24.67    12.71 <
   8   2   7   326.78   135.27    16.00 o
  10   2   7    86.93    40.38    18.77 <
  12   2   7   318.24    40.04    23.49 <
 -11   3   7   139.20   102.39    74.95 <
  -9   3   7   213.99    18.21    43.06 <
  -7   3   7    36.80    21.33    30.07 <
  -3   3   7  2750.91  3064.57    23.29 o
  -1   3   7    99.82  2516.54    20.73 o
   3   3   7    95.41  1109.77    18.74 o
   7   3   7    72.86    76.47    16.12 o
   9   3   7   306.18   613.61    19.54 o
  11   3   7  1109.80   327.46    19.85 o
 -10   4   7     2.81   105.65    42.39 <
  -8   4   7    18.67   291.61    30.79 o
  -6   4   7   716.73   818.44    60.86 o
  -4   4   7   940.09    51.12    26.79 <
   4   4   7  2011.54    38.12    17.83 <
  10   4   7    21.05   103.72    18.74 o
  12   4   7    22.39    35.10    19.91 <
  -9   5   7     7.36   142.60    30.06 o
  -7   5   7   260.37   401.94    33.43 o
  -5   5   7   194.35   221.70    31.16 o
   5   5   7   423.27   455.59    23.79 o
   7   5   7   161.91    69.38    39.79 <
  11   5   7    82.76    56.75    19.16 <
  -8   6   7    49.72    55.35    34.19 <
  -6   6   7   121.67  1000.35    41.40 o
   6   6   7    37.84   -10.29    23.75 <
   8   6   7   229.75   222.55    44.71 o
  -9   7   7   483.99   120.62    70.73 <
  -7   7   7   187.27     6.70    43.28 <
   7   7   7   765.51   197.44    27.83 o
   9   7   7   327.71   128.02    52.33 <
  -8   8   7     8.71   162.41    51.57 o
  -2   0   8  1527.50  3303.74    26.55 o
   4   0   8  2126.02  1859.63    10.93 o
   6   0   8   986.05    36.18    13.08 <
   8   0   8   580.57   399.65    18.08 o
  10   0   8   706.39   -16.78    22.13 <
  -7   1   8     0.06   466.97    95.03 o
  -5   1   8   121.50    38.96    38.21 <
  -3   1   8   946.00  1841.42    20.68 o
   5   1   8   107.34    53.19    10.84 o
   7   1   8    71.12   109.34    15.90 o
   9   1   8    58.65    40.19    18.86 <
  -8   2   8     3.30    88.42    51.33 <
  -6   2   8  1003.92  1925.81    35.56 o
  -4   2   8   878.65  1745.25    21.09 o
   2   2   8   292.14    71.61    14.28 o
   8   2   8    47.26     4.34    13.56 <
  10   2   8   284.39    20.81    16.44 <
 -11   3   8    48.08   328.36    64.97 o
  -7   3   8   127.16    83.83    30.37 <
  -3   3   8   142.84    44.87    34.93 <
  -1   3   8   309.39   188.93    14.01 o
   3   3   8   239.24   212.11    15.54 o
   9   3   8   824.96   141.25    15.36 o
  -8   4   8   180.07   316.31    30.38 o
  -6   4   8    45.62   162.66    20.93 o
  -4   4   8    64.33    15.31    31.77 <
  -2   4   8    84.54   656.24    20.58 o
   4   4   8   385.73   264.29    18.32 o
  -9   5   8     7.85   293.92    30.35 o
  -7   5   8    55.57   343.84    24.80 o
  -5   5   8   211.88     4.72    32.41 <
  -3   5   8  1112.04  2115.46    31.58 o
   5   5   8   271.64   206.89    20.26 o
   7   5   8    26.39    88.19    42.62 <
  -8   6   8   108.11   516.98    29.86 o
  -6   6   8    12.77   601.82    40.47 o
  -4   6   8  1689.21    17.23    27.92 <
   6   6   8   126.29   352.29    24.96 o
   8   6   8   353.96     2.17    45.62 <
  -7   7   8   383.27    47.98    44.19 <
  -5   7   8     7.53   244.94    33.91 o
   7   7   8    59.39   126.55    27.81 o
  -2   0   9  1081.57  1870.63    14.51 o
   6   0   9   177.88    79.19     9.07 o
 -11   1   9   458.07    35.78   238.67 <
  -9   1   9   252.29   757.97   133.40 o
  -7   1   9     0.02    23.67    68.67 <
  -5   1   9   247.00    28.36    27.36 <
  -3   1   9   443.56    39.17    11.77 o
   5   1   9    31.93   161.63     9.89 o
   7   1   9    52.31    30.19     9.52 o
 -10   2   9     3.56     4.29    71.35 <
  -8   2   9  2897.49   507.86    45.14 o
  -6   2   9   942.27   490.17    26.04 o
  -4   2   9    79.98   316.16    14.12 o
 -11   3   9     2.91     2.40    54.16 <
  -9   3   9    14.65   126.27    39.24 o
  -7   3   9   547.50   265.73    26.08 o
  -1   3   9  2380.81    25.71    21.16 <
   1   3   9   549.67    41.09     8.43 o
   3   3   9     2.39    73.39    19.45 o
 -10   4   9   265.92   316.25    42.04 o
  -8   4   9   578.78    15.17    25.82 <
  -6   4   9   461.50    34.43    18.58 <
  -4   4   9   722.78   476.36    42.89 o
  -2   4   9   382.69   328.85    21.33 o
   0   4   9   388.31   436.05    13.17 o
   4   4   9   415.11    17.69    18.98 <
  -9   5   9   381.32   406.46    28.42 o
  -7   5   9    25.52    17.84    21.42 <
  -5   5   9   575.01   103.86    41.41 <
  -3   5   9   361.17    57.13    20.38 <
   5   5   9    42.24   101.89    22.04 o
  -8   6   9   273.62    63.84    37.09 <
  -6   6   9     0.05   189.98    41.81 o
  -4   6   9   335.14  1233.89    29.76 o
  -9   7   9    61.62   175.17    81.48 <
  -7   7   9    36.01    45.66    44.07 <
  -5   7   9     9.17    16.11    27.82 <
  -4   0  10  2068.31   -32.52    38.60 <
  -2   0  10    39.14    81.30     7.02 o
 -11   1  10     0.17    62.39   175.57 <
  -9   1  10   410.71   201.21    96.21 <
  -7   1  10   888.10   157.38    53.61 <
  -5   1  10     6.20    11.94    20.10 <
  -3   1  10     4.05    73.32     9.25 o
 -10   2  10   413.37   231.24    64.00 o
  -8   2  10    16.49    35.92    37.18 <
  -6   2  10     0.00     3.21    23.50 <
  -4   2  10   253.39   150.57    12.88 o
   0   2  10   481.88    -7.75     5.22 <
 -11   3  10   514.77   587.24    50.97 o
  -9   3  10   265.94   191.88    35.97 o
  -7   3  10   335.31     5.48    21.92 <
  -5   3  10   330.91    -8.40    15.17 <
   1   3  10   163.37   210.35     8.96 o
 -10   4  10   586.35   447.15    35.65 o
  -8   4  10     4.69     5.63    22.93 <
  -6   4  10   380.31   248.79    18.86 o
  -2   4  10   157.16    88.48    25.51 o
   0   4  10    68.47   164.13    12.77 o
   2   4  10    21.61    70.77    11.17 o
  -9   5  10   295.38   251.32    26.91 o
  -7   5  10  1365.10   107.56    21.90 o
  -5   5  10     6.19    63.63    45.36 <
  -3   5  10     2.85   155.39    24.22 o
  -1   5  10     0.00     4.10    16.57 <
  -8   6  10    63.03   410.93    24.08 o
  -6   6  10    15.66    89.01    46.55 <
  -4   6  10   920.76    78.48    27.55 <
  -2   6  10   315.55   508.45    21.52 o
  -7   7  10   411.87    16.31    53.06 <
  -5   7  10     3.56     2.04    29.74 <
  -6   8  10   258.83   133.91    34.32 o
  -6   0  11   117.03   227.47    58.85 o
  -4   0  11   444.77     3.74    18.73 <
 -11   1  11    17.17   180.77   119.31 <
  -9   1  11     2.87   228.93    73.39 o
  -7   1  11   162.15   -25.36    35.54 <
  -5   1  11     5.35    33.63    17.74 <
  -3   1  11   336.27   333.52     9.63 o
 -10   2  11    81.65    66.40    51.10 <
  -8   2  11   324.88    57.72    28.38 <
  -6   2  11   156.48   254.24    19.38 o
  -4   2  11  1663.41  1251.59    16.12 o
 -11   3  11  1611.71   617.66    48.10 o
  -9   3  11    94.53     9.25    32.06 <
  -7   3  11   157.11    70.33    19.65 o
 -10   4  11    90.52   268.06    32.20 o
  -8   4  11    48.15    58.92    21.14 <
  -6   4  11     5.06    10.07    16.47 <
  -9   5  11    18.00    67.10    23.77 <
  -7   5  11   475.75   -12.43    18.80 <
  -3   5  11   502.71   508.01    32.47 o
  -1   5  11  1329.05   166.10    16.17 o
  -4   6  11    67.05   145.95    30.33 o
  -2   6  11    53.17   283.86    18.44 o
  -7   7  11    29.14    63.76    56.36 <
  -5   7  11     5.89    -2.27    30.99 <
  -6   8  11     0.00   -10.27    35.99 <
  -8   0  12   452.81   269.95    78.73 o
  -6   0  12    68.40    59.51    35.74 <
 -11   1  12    29.05   -30.22    87.34 <
  -9   1  12    24.50   124.95    49.33 <
  -7   1  12   355.63    17.93    24.93 <
 -10   2  12    14.92    -2.62    38.83 <
  -8   2  12   160.75   257.98    28.18 o
  -6   2  12    51.54    24.42    15.23 <
 -11   3  12    10.73   -12.32    40.52 <
  -9   3  12   255.32    22.90    26.29 <
  -7   3  12   116.11   185.84    17.71 o
 -10   4  12   168.27    97.74    27.05 o
  -8   4  12     6.87    -2.40    19.91 <
  -9   5  12    77.44   193.99    23.87 o

loop_
 _twin_refln_datum_id
 _twin_refln_individual_id
 _twin_refln_index_h
 _twin_refln_index_k
 _twin_refln_index_l
 _twin_refln_F_squared_calc
 _twin_refln_F_squared_meas
 _twin_refln_F_squared_sigma
 _twin_refln_include_status
 ? ? ? ? ? ? ? ? ?

