
#=======================================================================
data_global
#=======================================================================

_audit_creation_method                   'Jana2006 Version : 02/04/2022'


# 1. PROCESSING SUMMARY (IUCr Office Use Only)

_journal_date_recd_electronic            ?
_journal_date_to_coeditor                ?
_journal_date_from_coeditor              ?
_journal_date_accepted                   ?
_journal_date_printers_first             ?
_journal_date_printers_final             ?
_journal_date_proofs_out                 ?
_journal_date_proofs_in                  ?
_journal_coeditor_name                   ?
_journal_coeditor_code                   ?
_journal_coeditor_notes
; ?
;
_journal_techeditor_code                 ?
_journal_paper_category                  ?
_journal_techeditor_notes
; ?
;
_journal_coden_ASTM                      ?
_journal_name_full                       'Acta Crystallographica Section C'
_journal_year                            ?
_journal_volume                          ?
_journal_issue                           ?
_journal_page_first                      ?
_journal_page_last                       ?
_journal_suppl_publ_number               ?
_journal_suppl_publ_pages                ?

#=======================================================================

# 2. SUBMISSION DETAILS

_publ_contact_author_name                ?
_publ_contact_author_address
; ?
;
_publ_contact_author_email               ?
_publ_contact_author_fax                 ?
_publ_contact_author_phone               ?

_publ_requested_journal                  'Acta Crystallographica Section C'
_publ_requested_category                 ?

_publ_contact_letter
; ?
;

#=======================================================================

# 3. TITLE AND AUTHOR LIST

_publ_section_title
; ?
;
_publ_section_title_footnote
; ?
;
loop_
 _publ_author_name
 _publ_author_footnote
 _publ_author_address
; ?      # name
;
; ?      # footnote
;
; ?      # address
;

#=======================================================================

# 4. TEXT

_publ_section_synopsis
; ?
;
_publ_section_abstract
; ?
;
_publ_section_comment
; ?
;
_publ_section_introduction
; ?
;
_publ_section_experimental
; ?
;
_publ_section_exptl_prep
; ?
;
_publ_section_exptl_refinement
; ?
;
_publ_section_exptl_solution
; ?
;
_publ_section_discussion
; ?
;
_publ_section_acknowledgements
; ?
;
_publ_section_references
;
Petricek, V., Dusek, M. & Palatinus L. (2014). Z. Kristallogr. 229(5), 345-352.

Palatinus L. & Chapuis G. (2007). J. Appl. Cryst. 40, 786-790.

# enable this reference if Diamond ver. 2 was used for visualization
#Brandenburg, K. (1999). DIAMOND. Version. 2.1c.
#Crystal Impact GbR, Bonn, Germany.

# enable this reference if Diamond ver. 3 was used for visualization
#Brandenburg, K. & Putz, H. (2005). DIAMOND Version 3.
#Crystal Impact GbR, Postfach 1251, D-53002 Bonn, Germany.

# enable this reference if SIR97 was used for solving of the structure
#Altomare, A., Burla, M. C., Camalli, M., Cascarano, G., Giacovazzo, C.,
#Guagliardi, A., Moliterni, A. G. G., Polidori, G., Spagna, R. (1997).
#SIR97. A Package for Crystal Structure Solution by Direct Methods
#and Refinement, Bari, Rome, Italy.

# use this reference if SIR2002 was used for solving of the structure
#Burla, M.C., Camalli, M., Carrozzini, B., Cascarano, G., Giacovazzo, C.,
#Polidori, G., Spagna, R.
#SIR2002: the program, J. Appl. Cryst, (2003). 36, 1103


# use this reference if SIR2011 was used for solving of the structure
#Burla, M.C., Caliandro, R., Camalli, M., Carrozzini, B., Cascarano,
#G.L., Giacovazzo, C., Mallamo. M., Mazzone, A., Polidori, G., Spagna, R.
#SIR2011: a new package for crystal structure determination and refinement,
#J.Appl.Cryst. (2012) 45, 357-361

# enable this reference if bond valences were calculated
#Brown, I. D. (1996). J. Appl. Cryst. 29, 479-480.

# enable this reference if Xshape wase used for crystal shape refinement
#Stoe & Cie (1998). X-SHAPE. Stoe & Cie, Darmstadt, Germany.


# enable this reference if Flack coefficient was refined
#Flack, H. D. (1983). Acta Cryst. A39, 876-881.
;
_publ_section_figure_captions
; ?
;
_publ_section_table_legends
; ?
;

#=======================================================================
data_I
#=======================================================================

# 5. CHEMICAL DATA

_chemical_name_systematic
; ?
;
_chemical_name_common                    ?
_chemical_formula_moiety                 ?
_chemical_formula_structural             ?
_chemical_formula_analytical             ?
_chemical_formula_iupac                  ?
_chemical_formula_sum                    'C1 Mg1 O3'
_chemical_formula_weight                 84.3
_chemical_melting_point                  ?
_chemical_compound_source                ?
_chemical_absolute_configuration         .

#=======================================================================

# 6. CRYSTAL DATA

_symmetry_cell_setting                   monoclinic
_symmetry_space_group_name_H-M           'C 1 2/m 1'
_symmetry_space_group_name_Hall          '-C 2y'
_symmetry_Int_Tables_number              12

loop_
 _space_group_symop_id
 _space_group_symop_operation_xyz
 1   x,y,z
 2   -x,y,-z
 3   -x,-y,-z
 4   x,-y,z
 5   x+1/2,y+1/2,z
 6   -x+1/2,y+1/2,-z
 7   -x+1/2,-y+1/2,-z
 8   x+1/2,-y+1/2,z

_cell_length_a                           8.0661(18)
_cell_length_b                           6.465(2)
_cell_length_c                           6.8710(7)
_cell_angle_alpha                        90.000(16)
_cell_angle_beta                         103.737(14)
_cell_angle_gamma                        90.00(2)
_cell_volume                             348.04(14)

loop_
 _twin_individual_id
 _twin_individual_mass_fraction_refined
 _twin_individual_twin_matrix_11
 _twin_individual_twin_matrix_12
 _twin_individual_twin_matrix_13
 _twin_individual_twin_matrix_21
 _twin_individual_twin_matrix_22
 _twin_individual_twin_matrix_23
 _twin_individual_twin_matrix_31
 _twin_individual_twin_matrix_32
 _twin_individual_twin_matrix_33
 ? ? ? ? ? ? ? ? ? ? ?

_cell_formula_units_Z                    12

_cell_measurement_reflns_used            214
_cell_measurement_theta_min              1.62
_cell_measurement_theta_max              16.86
_cell_measurement_temperature            293
_cell_special_details
; ?
;

_exptl_crystal_density_diffrn            4.8272
_exptl_crystal_density_meas              ?
_exptl_crystal_density_method            ?
_exptl_crystal_F_000                     480

_exptl_absorpt_coefficient_mu            0.131
_exptl_crystal_description               ?
_exptl_crystal_size_max                  ?
_exptl_crystal_size_mid                  ?
_exptl_crystal_size_min                  ?
_exptl_crystal_size_rad                  ?
_exptl_crystal_colour                    ?
_exptl_absorpt_correction_type           'multi-scan'
_exptl_absorpt_process_details
;
CrysAlisPro 1.171.42.54a (Rigaku Oxford Diffraction, 2022)
Empirical absorption correction using spherical harmonics,
implemented in SCALE3 ABSPACK scaling algorithm.
;
_exptl_absorpt_correction_T_min          0.17
_exptl_absorpt_correction_T_max          1
loop_
 _exptl_crystal_face_index_h
 _exptl_crystal_face_index_k
 _exptl_crystal_face_index_l
 _exptl_crystal_face_perp_dist
 ? ? ? ?

#=======================================================================

# 7. EXPERIMENTAL DATA

_exptl_special_details                   ?

_diffrn_ambient_temperature              293
_diffrn_source                           'synchrotron'
_diffrn_source_power                     ?
_diffrn_source_voltage                   ?
_diffrn_source_current                   ?
_diffrn_radiation_type                   'X-ray'
_diffrn_radiation_source                 ?
_diffrn_radiation_wavelength             0.2843
_diffrn_radiation_monochromator          'synchrotron'
_diffrn_measurement_device               'four-circle diffractometer'
_diffrn_measurement_device_type          'esperanto-CrysAlisPro-abstract goniometer imported esperanto images'
_diffrn_detector                         'Hybrid Pixel Array Detector'
_diffrn_detector_area_resol_mean         13.3333
_diffrn_measurement_method               '\w scans'
_diffrn_measurement_specimen_support     ?

_diffrn_reflns_number                    687
_diffrn_reflns_theta_min                 1.63
_diffrn_reflns_theta_max                 17.73
_diffrn_reflns_theta_full                13.96
_diffrn_measured_fraction_theta_max      0.31
_diffrn_measured_fraction_theta_full     0.47
_diffrn_reflns_av_R_equivalents          0.0116
_diffrn_reflns_av_unetI/netI             0.0485
_diffrn_reflns_limit_h_min               -10
_diffrn_reflns_limit_h_max               13
_diffrn_reflns_limit_k_min               -8
_diffrn_reflns_limit_k_max               7
_diffrn_reflns_limit_l_min               -12
_diffrn_reflns_limit_l_max               11
_diffrn_reflns_reduction_process         ?

_diffrn_standards_number                 ?
_diffrn_standards_interval_count         ?
_diffrn_standards_interval_time          ?
_diffrn_standards_decay_%                ?
loop_
_diffrn_standard_refln_index_h
_diffrn_standard_refln_index_k
_diffrn_standard_refln_index_l
  ? ? ?

_diffrn_radiation_probe                  X-ray

#=======================================================================

# 8. REFINEMENT DATA

_refine_special_details
; ?
;

_reflns_number_total                     322
_reflns_number_gt                        128
_reflns_threshold_expression             'I>3\s(I)'

_refine_ls_structure_factor_coef         F
_refine_ls_R_factor_gt                   0.0980
_refine_ls_wR_factor_gt                  0.0652
_refine_ls_R_factor_all                  0.4300
_refine_ls_wR_factor_ref                 0.0904
_refine_ls_goodness_of_fit_ref           2.25
_refine_ls_goodness_of_fit_gt            2.84
_refine_ls_restrained_S_gt               ?
_refine_ls_restrained_S_all              ?
_refine_ls_number_reflns                 322
_refine_ls_number_parameters             34
_refine_ls_number_restraints             0
_refine_ls_number_constraints            0
_refine_ls_weighting_scheme              sigma
_refine_ls_weighting_details             'w=1/(\s^2^(F)+0.0001F^2^)'
_refine_ls_hydrogen_treatment            ?
_refine_ls_shift/su_max                  0.0427
_refine_ls_shift/su_mean                 0.0157
_refine_diff_density_max                 ?
_refine_diff_density_min                 ?
_refine_ls_extinction_method             'none'
_refine_ls_extinction_coef               ?
_refine_ls_extinction_expression         ?
_refine_ls_abs_structure_details         ?
_refine_ls_abs_structure_Flack           ?
_refine_ls_abs_structure_Rogers          ?

loop_
 _atom_type_symbol
 _atom_type_scat_dispersion_real
 _atom_type_scat_dispersion_imag
 _atom_type_scat_source
 C   -0.0010  0.0002
 'International Tables Vol C tables 4.2.6.8 and 6.1.1.1'
 Mg   0.0024  0.0051
 'International Tables Vol C tables 4.2.6.8 and 6.1.1.1'
 O   -0.0011  0.0008
 'International Tables Vol C tables 4.2.6.8 and 6.1.1.1'

_computing_data_collection
 'CrysAlisPro 1.171.42.54a (Rigaku OD, 2022)'
_computing_cell_refinement
 'CrysAlisPro 1.171.42.54a (Rigaku OD, 2022)'
_computing_data_reduction
 'CrysAlisPro 1.171.42.54a (Rigaku OD, 2022)'
_computing_structure_solution            ?
_computing_structure_refinement          ?
_computing_molecular_graphics            ?
_computing_publication_material          ?

loop_
 _restr_distance_atom_site_label_1
 _restr_distance_site_symmetry_1
 _restr_distance_atom_site_label_2
 _restr_distance_site_symmetry_2
 _restr_distance_target
 _restr_distance_target_weight_param
 ? ? ? ? ? ?

loop_
 _restr_angle_atom_site_label_1
 _restr_angle_site_symmetry_1
 _restr_angle_atom_site_label_2
 _restr_angle_site_symmetry_2
 _restr_angle_atom_site_label_3
 _restr_angle_site_symmetry_3
 _restr_angle_target
 _restr_angle_target_weight_param
 ? ? ? ? ? ? ? ?

loop_
 _restr_torsion_atom_site_label_1
 _restr_torsion_site_symmetry_1
 _restr_torsion_atom_site_label_2
 _restr_torsion_site_symmetry_2
 _restr_torsion_atom_site_label_3
 _restr_torsion_site_symmetry_3
 _restr_torsion_atom_site_label_4
 _restr_torsion_site_symmetry_4
 _restr_torsion_angle_target
 _restr_torsion_weight_param
 ? ? ? ? ? ? ? ? ? ?

loop_
 _restr_equal_distance_atom_site_label_1
 _restr_equal_distance_site_symmetry_1
 _restr_equal_distance_atom_site_label_2
 _restr_equal_distance_site_symmetry_2
 _restr_equal_distance_class_class_id
 _restr_equal_distance_class_target_weight_param
 ? ? ? ? ? ?

loop_
 _restr_equal_angle_atom_site_label_1
 _restr_equal_angle_site_symmetry_1
 _restr_equal_angle_atom_site_label_2
 _restr_equal_angle_site_symmetry_2
 _restr_equal_angle_atom_site_label_3
 _restr_equal_angle_site_symmetry_3
 _restr_equal_angle_class_class_id
 _restr_equal_angle_class_target_weight_param
 ? ? ? ? ? ? ? ?

loop_
 _restr_equal_torsion_atom_site_label_1
 _restr_equal_torsion_site_symmetry_1
 _restr_equal_torsion_atom_site_label_2
 _restr_equal_torsion_site_symmetry_2
 _restr_equal_torsion_atom_site_label_3
 _restr_equal_torsion_site_symmetry_3
 _restr_equal_torsion_atom_site_label_4
 _restr_equal_torsion_site_symmetry_4
 _restr_equal_torsion_class_class_id
 _restr_equal_torsion_class_target_weight_param
 ? ? ? ? ? ? ? ? ? ?


#=======================================================================

# 9. ATOMIC COORDINATES AND DISPLACEMENT PARAMETERS

loop_
 _atom_site_label
 _atom_site_type_symbol
 _atom_site_fract_x
 _atom_site_fract_y
 _atom_site_fract_z
 _atom_site_adp_type
 _atom_site_U_iso_or_equiv
 _atom_site_site_symmetry_multiplicity
 _atom_site_occupancy
 _atom_site_calc_flag
 _atom_site_refinement_flags
 _atom_site_disorder_assembly
 _atom_site_disorder_group
  Mg1 Mg 0.6996(5) 1 0.0190(5) Uiso 0.0017(6) 4 1 d . . .
  Mg2 Mg 0.8740(5) 0.7708(7) 0.3299(5) Uiso 0.0123(7) 8 1 d . . .
  O1 O 0.9686(12) 1 0.4001(14) Uiso 0.0118(15) 4 1 d . . .
  O2 O 0.7779(9) 0.5 0.4208(8) Uiso 0.0009(10) 4 1 d . . .
  O4 O 0.5 1.2052(18) 0 Uiso 0.0094(15) 4 1 d . . .
  O5 O 0.6446(5) 0.6706(7) 0.1457(5) Uiso -0.0051(6) 8 1 d . . .
  O6 O 0.5872(8) 1 0.3441(8) Uiso -0.0001(9) 4 1 d . . .
  O7 O 0.7460(7) 1 0.2823(7) Uiso -0.0057(7) 4 1 d . . .
  O8 O 0.8619(14) 0.8003(16) 0.0590(17) Uiso 0.028(2) 8 1 d . . .
  C1 C 0.9347(8) 0.6705(10) 0.2672(8) Uiso -0.0007(8) 8 1 d . . .

loop_
 _atom_site_aniso_label
 _atom_site_aniso_type_symbol
 _atom_site_aniso_U_11
 _atom_site_aniso_U_22
 _atom_site_aniso_U_33
 _atom_site_aniso_U_12
 _atom_site_aniso_U_13
 _atom_site_aniso_U_23
 ? ? ? ? ? ? ? ?

loop_
 _jana_atom_site_ADP_C_label
 _jana_atom_site_ADP_C_type_symbol
 _jana_atom_site_ADP_C_111
 _jana_atom_site_ADP_C_112
 _jana_atom_site_ADP_C_113
 _jana_atom_site_ADP_C_122
 _jana_atom_site_ADP_C_123
 _jana_atom_site_ADP_C_133
 _jana_atom_site_ADP_C_222
 _jana_atom_site_ADP_C_223
 _jana_atom_site_ADP_C_233
 _jana_atom_site_ADP_C_333
 ? ? ? ? ? ? ? ? ? ? ? ?

loop_
 _jana_atom_site_ADP_D_label
 _jana_atom_site_ADP_D_type_symbol
 _jana_atom_site_ADP_D_1111
 _jana_atom_site_ADP_D_1112
 _jana_atom_site_ADP_D_1113
 _jana_atom_site_ADP_D_1122
 _jana_atom_site_ADP_D_1123
 _jana_atom_site_ADP_D_1133
 _jana_atom_site_ADP_D_1222
 _jana_atom_site_ADP_D_1223
 _jana_atom_site_ADP_D_1233
 _jana_atom_site_ADP_D_1333
 _jana_atom_site_ADP_D_2222
 _jana_atom_site_ADP_D_2223
 _jana_atom_site_ADP_D_2233
 _jana_atom_site_ADP_D_2333
 _jana_atom_site_ADP_D_3333
 ? ? ? ? ? ? ? ? ? ? ? ? ? ? ? ? ?

loop_
 _jana_atom_site_ADP_E_label
 _jana_atom_site_ADP_E_type_symbol
 _jana_atom_site_ADP_E_11111
 _jana_atom_site_ADP_E_11112
 _jana_atom_site_ADP_E_11113
 _jana_atom_site_ADP_E_11122
 _jana_atom_site_ADP_E_11123
 _jana_atom_site_ADP_E_11133
 _jana_atom_site_ADP_E_11222
 _jana_atom_site_ADP_E_11223
 _jana_atom_site_ADP_E_11233
 _jana_atom_site_ADP_E_11333
 _jana_atom_site_ADP_E_12222
 _jana_atom_site_ADP_E_12223
 _jana_atom_site_ADP_E_12233
 _jana_atom_site_ADP_E_12333
 _jana_atom_site_ADP_E_13333
 _jana_atom_site_ADP_E_22222
 _jana_atom_site_ADP_E_22223
 _jana_atom_site_ADP_E_22233
 _jana_atom_site_ADP_E_22333
 _jana_atom_site_ADP_E_23333
 _jana_atom_site_ADP_E_33333
 ? ? ? ? ? ? ? ? ? ? ? ? ? ? ? ? ? ? ? ? ? ? ?

loop_
 _jana_atom_site_ADP_F_label
 _jana_atom_site_ADP_F_type_symbol
 _jana_atom_site_ADP_F_111111
 _jana_atom_site_ADP_F_111112
 _jana_atom_site_ADP_F_111113
 _jana_atom_site_ADP_F_111122
 _jana_atom_site_ADP_F_111123
 _jana_atom_site_ADP_F_111133
 _jana_atom_site_ADP_F_111222
 _jana_atom_site_ADP_F_111223
 _jana_atom_site_ADP_F_111233
 _jana_atom_site_ADP_F_111333
 _jana_atom_site_ADP_F_112222
 _jana_atom_site_ADP_F_112223
 _jana_atom_site_ADP_F_112233
 _jana_atom_site_ADP_F_112333
 _jana_atom_site_ADP_F_113333
 _jana_atom_site_ADP_F_122222
 _jana_atom_site_ADP_F_122223
 _jana_atom_site_ADP_F_122233
 _jana_atom_site_ADP_F_122333
 _jana_atom_site_ADP_F_123333
 _jana_atom_site_ADP_F_133333
 _jana_atom_site_ADP_F_222222
 _jana_atom_site_ADP_F_222223
 _jana_atom_site_ADP_F_222233
 _jana_atom_site_ADP_F_222333
 _jana_atom_site_ADP_F_223333
 _jana_atom_site_ADP_F_233333
 _jana_atom_site_ADP_F_333333
 ? ? ? ? ? ? ? ? ? ? ? ? ? ? ? ? ? ? ? ? ? ? ? ? ? ? ? ? ? ?


#=======================================================================

# 10. MOLECULAR GEOMETRY


loop_
 _geom_bond_atom_site_label_1
 _geom_bond_atom_site_label_2
 _geom_bond_site_symmetry_1
 _geom_bond_site_symmetry_2
 _geom_bond_distance
 _geom_bond_publ_flag
 ? ? ? ? ? ?

loop_
 _geom_angle_atom_site_label_1
 _geom_angle_atom_site_label_2
 _geom_angle_atom_site_label_3
 _geom_angle_site_symmetry_1
 _geom_angle_site_symmetry_2
 _geom_angle_site_symmetry_3
 _geom_angle
 _geom_angle_publ_flag
 ? ? ? ? ? ? ? ?

loop_
 _geom_torsion_atom_site_label_1
 _geom_torsion_atom_site_label_2
 _geom_torsion_atom_site_label_3
 _geom_torsion_atom_site_label_4
 _geom_torsion_site_symmetry_1
 _geom_torsion_site_symmetry_2
 _geom_torsion_site_symmetry_3
 _geom_torsion_site_symmetry_4
 _geom_torsion
 _geom_torsion_publ_flag
 ? ? ? ? ? ? ? ? ? ?

loop_
 _geom_hbond_atom_site_label_D
 _geom_hbond_atom_site_label_H
 _geom_hbond_atom_site_label_A
 _geom_hbond_site_symmetry_D
 _geom_hbond_site_symmetry_H
 _geom_hbond_site_symmetry_A
 _geom_hbond_distance_DH
 _geom_hbond_distance_HA
 _geom_hbond_distance_DA
 _geom_hbond_angle_DHA
 _geom_hbond_publ_flag
 ? ? ? ? ? ? ? ? ? ? ?


#=======================================================================

# 11. STRUCTURE-FACTOR LIST

loop_
 _refln_index_h
 _refln_index_k
 _refln_index_l
 _refln_F_squared_calc
 _refln_F_squared_meas
 _refln_F_squared_sigma
 _refln_observed_status
   1   1   0    27.43    16.69     3.13 o
   2   2   0  3398.89  3544.92    19.76 o
  12   2   0    97.80    40.48   100.10 <
   9   3   0   516.09   555.77    40.76 o
  11   3   0   322.51   232.59    52.57 o
   4   4   0     4.94    -3.33    12.04 <
   8   4   0   412.28    17.85    34.52 <
  10   4   0   306.55    76.77    41.76 <
   5   5   0  1450.11  1325.23    30.62 o
   9   5   0    91.26    33.34    39.22 <
   6   6   0    97.48    10.42    31.72 <
   8   6   0   246.35   -17.58    25.64 <
   7   7   0   598.56   616.13    44.43 o
   9   7   0   206.50   262.64    30.69 o
  -3   1   1   412.15   413.12    23.30 o
   3   1   1   403.24   412.36    15.72 o
 -12   2   1   247.59   456.89   119.89 o
  -8   2   1  1220.28  1096.33    65.74 o
   6   2   1   857.64   914.08    32.00 o
   8   2   1    12.70    74.06    42.67 <
  10   2   1   216.01   140.67    61.04 <
  12   2   1   240.04     8.77    76.80 <
  -9   3   1   164.91     4.54    44.52 <
   7   3   1     4.19    25.18    26.72 <
   9   3   1   356.05   386.16    36.54 o
  11   3   1   374.37   453.53    46.36 o
 -12   4   1     0.83    36.33    47.79 <
 -10   4   1    87.75    15.90    41.44 <
   6   4   1   151.96    12.33    17.88 <
  12   4   1    19.97     0.25    44.28 <
 -11   5   1   427.88     2.41    37.14 <
   7   5   1   248.29   147.14    20.76 o
   9   5   1     3.47    71.38    34.97 <
  11   5   1    35.89    63.29    33.96 <
 -10   6   1   217.72     7.95    43.54 <
  -8   6   1    62.47    94.97    25.24 o
  -6   6   1   163.64    11.17    31.26 <
   8   6   1     8.15    43.47    24.82 <
  10   6   1   177.53   148.24    39.09 o
  -9   7   1   238.94   326.60    31.91 o
  -7   7   1    97.81   191.76    43.04 o
   7   7   1    52.98   -38.92    39.34 <
   9   7   1    14.20     4.00    28.58 <
   1   1   2    18.24    26.52     4.43 o
   9   1   2   669.68   -23.37    84.74 <
  11   1   2    40.45   180.48    96.67 <
  13   1   2     0.22   137.10   103.36 <
 -12   2   2   445.51   184.16   138.74 <
 -10   2   2    90.32    32.45   104.69 <
   4   2   2    90.69    -0.94    12.78 <
   8   2   2   378.12   352.76    37.90 o
  -3   3   2  2328.77  2174.76    15.56 o
   3   3   2   160.26   202.51    13.36 o
   9   3   2   545.69   -19.01    32.89 <
  11   3   2    12.86    11.53    39.08 <
  -6   4   2   466.52   348.85    22.54 o
  -4   4   2   171.00   191.42    13.80 o
  10   4   2    37.11    16.83    31.42 <
  12   4   2   324.55   -13.09    37.63 <
  -9   5   2     1.80    41.69    78.11 <
   7   5   2    24.12    14.22    19.89 <
 -10   6   2  1062.58    11.33    44.76 <
  -8   6   2   267.13    -5.09    27.40 <
   6   6   2    35.75     9.65    30.07 <
   8   6   2   231.58    62.79    25.40 <
  -9   7   2    21.50     4.35    55.66 <
   7   7   2    50.51   169.91    37.40 o
   9   7   2    21.45   102.80    44.52 <
   9   1   3   213.77   117.96    65.94 <
  13   1   3   132.91   -44.68    76.17 <
 -10   2   3    24.79   206.75   114.76 <
  -6   2   3  1015.58   967.49    44.26 o
  12   2   3    31.59    15.53    43.28 <
  -7   3   3   113.14    14.81    29.55 <
   9   3   3   191.25    92.92    31.36 <
 -10   4   3    13.48   128.25    45.66 <
  -8   4   3   245.02   -26.07    40.50 <
   4   4   3   388.87   452.78    19.63 o
  10   4   3   183.39    83.13    25.98 o
  12   4   3   297.80   307.53    37.02 o
 -11   5   3   310.99   -18.91    42.48 <
  -9   5   3   166.80   112.72    43.57 <
   5   5   3   597.11   612.16    23.80 o
 -10   6   3     4.15    89.35    34.35 <
   6   6   3   300.51   135.58    31.34 o
  -9   7   3    77.10    11.77    31.59 <
  -7   7   3   135.27     9.47    41.47 <
   7   7   3   366.46   202.31    37.42 o
  -8   8   3    23.27    26.17    49.77 <
  -1   1   4  8311.45  8823.45    21.34 o
   7   1   4   209.95   314.28    35.98 o
   9   1   4    36.28    62.82    48.94 <
  11   1   4    40.64     1.48    55.87 <
  13   1   4     6.63   -49.98    58.10 <
  -8   2   4    29.75    29.64    79.85 <
  -2   2   4  1415.69  1485.68    11.74 o
   2   2   4 18748.50 18011.60    40.11 o
   4   2   4    91.77   129.28    15.58 o
   6   2   4   513.21   497.14    21.88 o
  10   2   4   584.28   431.30    35.05 o
  12   2   4     0.37     9.02    36.45 <
 -11   3   4    23.31    75.11    70.74 <
  -9   3   4   473.97    68.65    53.24 <
   9   3   4   976.31  1084.65    30.61 o
  11   3   4   208.88    58.63    34.08 <
 -10   4   4    36.39    48.14    47.09 <
  -6   4   4  3412.71  3259.00    30.60 o
  -4   4   4   224.51   169.22    15.30 o
  10   4   4     9.86    21.02    24.81 <
  12   4   4    52.84    86.57    30.49 <
  -9   5   4   107.47   -36.31    42.76 <
  -7   5   4   169.82   202.41    24.47 o
   9   5   4   125.41    60.60    32.16 <
  11   5   4    71.89    33.70    27.13 <
 -10   6   4   505.82   435.73    50.80 o
  -8   6   4  1142.48  1259.27    32.59 o
  -6   6   4    61.18   138.67    21.50 o
  -7   7   4   125.12   127.11    42.25 o
   9   7   4     9.56    27.23    42.10 <
  -3   1   5  3126.72  3113.50    35.73 o
   3   1   5    60.20    40.89     8.52 o
   7   1   5   151.84    51.67    24.40 <
   9   1   5    18.01    34.35    33.78 <
  11   1   5     0.45     6.79    36.66 <
  13   1   5     1.25    97.48    40.85 <
 -12   2   5  1728.58  1533.56   189.05 o
 -10   2   5    11.45    53.89   130.89 <
  -8   2   5    37.67    45.70    80.01 <
  -6   2   5   863.39   896.82    42.09 o
   2   2   5    36.38     2.42     8.91 <
   6   2   5    68.23    80.60    15.23 o
   8   2   5   593.03   569.34    25.87 o
  12   2   5   144.03   129.66    30.21 o
  -9   3   5   446.09   145.00    50.90 <
  -7   3   5   943.20   843.30    33.63 o
  11   3   5     2.15    48.38    26.87 <
 -10   4   5   660.91   530.73    47.39 o
  -6   4   5     2.59    11.00    24.02 <
  -4   4   5   169.64     6.69    14.09 <
   8   4   5   918.92   889.92    24.32 o
  12   4   5    14.58     9.88    23.89 <
 -11   5   5     3.99    10.31    41.92 <
  -7   5   5   224.04    64.13    24.43 <
   5   5   5   839.35   871.68    28.13 o
   7   5   5    21.88   113.54    34.01 o
   9   5   5     5.08    38.12    23.11 <
  11   5   5    11.10    31.28    23.53 <
 -10   6   5   266.35   207.08    52.12 o
  -8   6   5   111.84     8.07    30.17 <
  -6   6   5  1496.39  1311.03    41.35 o
   6   6   5    25.07    20.05    27.83 <
   8   6   5    16.23    28.04    39.36 <
  -9   7   5   233.95    38.16    34.94 <
  -7   7   5   352.44    30.08    43.35 <
   7   7   5   170.14   -17.46    30.50 <
   9   7   5   192.42    54.59    44.29 <
   6   0   6     2.00    32.94    29.37 <
   8   0   6  1525.90   -13.53    41.00 <
  10   0   6   620.66    29.82    43.60 <
  12   0   6   238.55    24.33    45.66 <
   5   1   6   240.52     0.87    12.38 <
   9   1   6   139.69    77.95    25.36 o
  11   1   6   118.15     3.19    29.58 <
  13   1   6     7.88    20.72    34.76 <
 -12   2   6   117.71   140.18   180.90 <
 -10   2   6   221.04    55.30   123.72 <
  -8   2   6  2525.67  2774.70    81.96 o
  -6   2   6   233.10     2.76    31.45 <
   0   2   6   976.80    -1.24     7.83 <
   6   2   6    52.33     6.35    13.04 <
  12   2   6    36.51    90.04    27.75 o
 -11   3   6   671.43   836.65    78.10 o
   3   3   6   128.56   104.87    14.68 o
   7   3   6   162.37   238.16    17.30 o
   9   3   6    66.86    92.67    18.67 o
 -10   4   6   364.77   173.99    48.32 o
   4   4   6    65.08    40.42    19.58 <
   8   4   6    14.71    25.87    19.15 <
  -9   5   6    41.69    32.46    32.02 <
  -7   5   6    75.49    -0.39    29.19 <
  -3   5   6   952.33  1001.04    24.79 o
   7   5   6   345.75   440.24    39.59 o
   9   5   6   110.00   168.39    20.31 o
  11   5   6   301.22     5.84    22.31 <
 -10   6   6    33.45   -19.72    34.69 <
   8   6   6   206.67   151.39    40.96 o
  -9   7   6   104.80   247.00    36.41 o
  -7   7   6    90.06   138.06    39.95 o
   7   7   6   219.67   194.42    28.52 o
   9   7   6   142.80    15.51    49.35 <
  -8   8   6   253.91   159.63    46.85 o
   4   0   7   364.26   392.33    10.22 o
  10   0   7    66.96    71.50    29.80 <
  -3   1   7    65.18    77.07    15.37 o
   5   1   7   356.82   382.27    11.93 o
  11   1   7    30.80    33.99    22.06 <
 -12   2   7    13.66   186.26   159.45 <
 -10   2   7   429.95   179.53   110.39 <
  -8   2   7    13.87    85.44    62.28 <
  -6   2   7   254.57    13.23    28.63 <
   2   2   7  4379.70  4391.92    20.36 o
   6   2   7    13.99    24.55    12.64 <
   8   2   7   136.82   134.57    15.92 o
  10   2   7   106.77    40.17    18.67 <
  12   2   7   219.20    39.83    23.37 <
 -11   3   7   142.05   101.86    74.56 <
  -9   3   7   119.14    18.12    42.83 <
  -7   3   7    46.65    21.22    29.92 <
  -3   3   7  3031.63  3048.66    23.17 o
   7   3   7    63.22    76.07    16.03 o
 -10   4   7     0.56   105.10    42.17 <
  -6   4   7   735.45   814.19    60.54 o
  10   4   7    36.03   103.18    18.65 o
  12   4   7    50.74    34.92    19.80 <
  -7   5   7   353.42   399.85    33.26 o
  -5   5   7   176.06   220.55    31.00 o
   5   5   7   410.83   453.23    23.67 o
   7   5   7   126.27    69.02    39.59 <
  11   5   7    16.16    56.45    19.06 <
  -8   6   7    16.38    55.06    34.01 <
   6   6   7    29.35   -10.24    23.62 <
   8   6   7   225.03   221.39    44.48 o
  -9   7   7   359.27   119.99    70.36 <
  -7   7   7   319.11     6.66    43.06 <
   9   7   7   405.38   127.36    52.06 <
  -8   8   7    11.49   161.57    51.30 o
   4   0   8  1763.56  1849.97    10.87 o
  10   0   8   371.40   -16.70    22.01 <
  -5   1   8   177.91    38.76    38.01 <
   5   1   8    66.66    52.91    10.79 o
   7   1   8    89.26   108.77    15.82 o
   9   1   8    55.89    39.98    18.76 <
  -8   2   8    17.16    87.96    51.07 <
   8   2   8    32.27     4.32    13.49 <
 -11   3   8    97.14   326.65    64.63 o
  -7   3   8   140.48    83.39    30.21 <
  -3   3   8    94.47    44.64    34.74 <
   3   3   8   218.24   211.01    15.46 o
  -8   4   8   276.11   314.66    30.22 o
  -4   4   8    36.15    15.23    31.61 <
  -5   5   8   208.19     4.70    32.24 <
   5   5   8   146.79   205.82    20.16 o
   7   5   8    34.15    87.73    42.40 <
   8   6   8   304.62     2.16    45.38 <
  -7   7   8   238.10    47.73    43.96 <
   7   7   8    87.65   125.89    27.67 o
 -11   1   9   442.02    35.60   237.43 <
  -9   1   9   316.55   754.04   132.70 o
  -7   1   9     0.46    23.54    68.32 <
  -5   1   9   181.24    28.21    27.22 <
   7   1   9     2.14    30.03     9.47 o
 -10   2   9    13.09     4.26    70.98 <
 -11   3   9     1.73     2.39    53.88 <
  -9   3   9    65.79   125.62    39.04 o
   3   3   9    20.27    73.01    19.35 o
 -10   4   9   230.93   314.61    41.82 o
  -4   4   9   678.55   473.89    42.66 o
  -2   4   9   286.38   327.14    21.22 o
   0   4   9   407.65   433.79    13.10 o
  -9   5   9   335.72   404.35    28.27 o
  -7   5   9    14.99    17.74    21.30 <
  -5   5   9   412.38   103.32    41.19 <
  -8   6   9   137.29    63.51    36.89 <
  -9   7   9   150.05   174.26    81.06 <
  -7   7   9     3.76    45.42    43.84 <
  -5   7   9     5.83    16.03    27.67 <
  -4   0  10  1883.72   -32.35    38.39 <
 -11   1  10     0.92    62.06   174.66 <
  -9   1  10   321.00   200.16    95.71 <
  -5   1  10    22.90    11.88    20.00 <
 -10   2  10   279.83   230.04    63.67 o
  -8   2  10    21.37    35.74    36.99 <
  -6   2  10    15.95     3.20    23.37 <
  -4   2  10   165.15   149.79    12.81 o
   0   2  10   447.52    -7.71     5.19 <
 -11   3  10   529.33   584.19    50.70 o
  -9   3  10   100.60   190.88    35.78 o
  -7   3  10   187.68     5.45    21.80 <
  -5   3  10   179.29    -8.35    15.09 <
 -10   4  10   547.58   444.83    35.46 o
  -8   4  10     3.61     5.60    22.81 <
  -6   4  10   298.04   247.50    18.76 o
  -2   4  10   216.54    88.02    25.38 o
   0   4  10   166.01   163.27    12.70 o
  -9   5  10   180.71   250.01    26.77 o
  -5   5  10    16.74    63.29    45.12 <
  -1   5  10     7.52     4.07    16.48 <
  -6   6  10    33.07    88.55    46.31 <
  -7   7  10   318.00    16.22    52.78 <
  -5   7  10    20.39     2.03    29.58 <
  -6   8  10    78.14   133.22    34.14 o
  -6   0  11    60.02   226.29    58.55 o
  -4   0  11   210.39     3.72    18.63 <
 -11   1  11     6.57   179.83   118.69 <
  -7   1  11   101.76   -25.23    35.36 <
  -5   1  11     8.29    33.45    17.64 <
  -3   1  11   375.24   331.78     9.58 o
 -10   2  11    34.36    66.05    50.84 <
  -8   2  11   202.23    57.43    28.23 <
  -6   2  11   265.20   252.92    19.28 o
  -9   3  11    44.45     9.20    31.89 <
  -7   3  11    73.18    69.97    19.55 o
  -8   4  11    29.10    58.61    21.03 <
  -6   4  11     9.24    10.02    16.39 <
  -9   5  11     3.58    66.75    23.65 <
  -7   5  11   257.46   -12.36    18.70 <
  -3   5  11   461.77   505.37    32.30 o
  -7   7  11    11.58    63.43    56.07 <
  -5   7  11     2.13    -2.26    30.82 <
  -6   8  11    22.38   -10.22    35.80 <
  -8   0  12   277.36   268.54    78.32 o
  -6   0  12   150.42    59.20    35.55 <
 -11   1  12     0.11   -30.06    86.89 <
  -9   1  12    24.48   124.30    49.07 <
  -7   1  12   206.72    17.84    24.80 <
 -10   2  12    19.68    -2.61    38.63 <
  -8   2  12   228.93   256.64    28.04 o
  -6   2  12    64.71    24.30    15.15 <
 -11   3  12     6.78   -12.25    40.31 <
  -7   3  12   112.94   184.88    17.62 o
 -10   4  12   128.73    97.23    26.91 o
  -8   4  12     0.05    -2.39    19.80 <

loop_
 _twin_refln_datum_id
 _twin_refln_individual_id
 _twin_refln_index_h
 _twin_refln_index_k
 _twin_refln_index_l
 _twin_refln_F_squared_calc
 _twin_refln_F_squared_meas
 _twin_refln_F_squared_sigma
 _twin_refln_include_status
 ? ? ? ? ? ? ? ? ?

