data_dom1_mc
_audit_creation_date               2023-06-21
_audit_creation_method
;
Olex2 1.5
(compiled 2023.03.06 svn.rbb2c1857 for OlexSys, GUI svn.r6748)
;
_shelx_SHELXL_version_number       '2018/3'
_audit_contact_author_address      ?
_audit_contact_author_email        ?
_audit_contact_author_name         ''
_audit_contact_author_phone        ?
_publ_contact_author_id_orcid      ?
_publ_section_references
;
Dolomanov, O.V., Bourhis, L.J., Gildea, R.J, Howard, J.A.K. & Puschmann, H.
 (2009), J. Appl. Cryst. 42, 339-341.

Sheldrick, G.M. (2015). Acta Cryst. A71, 3-8.

Sheldrick, G.M. (2015). Acta Cryst. C71, 3-8.
;
_chemical_name_common              ?
_chemical_name_systematic          ?
_chemical_formula_moiety           'Cl8 Fe3'
_chemical_formula_sum              'Cl8 Fe3'
_chemical_formula_weight           451.15
_chemical_melting_point            ?
_chemical_oxdiff_formula           'Fe3 Cl8'
loop_
  _atom_type_symbol
  _atom_type_description
  _atom_type_scat_dispersion_real
  _atom_type_scat_dispersion_imag
  _atom_type_scat_source
 'Cl' 'Cl' 0.0044 0.0253 'International Tables Vol C Tables 4.2.6.8 and 6.1.1.4'
 'Fe' 'Fe' 0.0570 0.1523 'International Tables Vol C Tables 4.2.6.8 and 6.1.1.4'

_shelx_space_group_comment
;
The symmetry employed for this shelxl refinement is uniquely defined
by the following loop, which should always be used as a source of
symmetry information in preference to the above space-group names.
They are only intended as comments.
;
_space_group_crystal_system        'monoclinic'
_space_group_IT_number             12
_space_group_name_H-M_alt          'C 1 2/m 1'
_space_group_name_Hall             '-C 2y'
loop_
  _space_group_symop_operation_xyz
 'x, y, z'
 '-x, y, -z'
 'x+1/2, y+1/2, z'
 '-x+1/2, y+1/2, -z'
 '-x, -y, -z'
 'x, -y, z'
 '-x+1/2, -y+1/2, -z'
 'x+1/2, -y+1/2, z'

_cell_length_a                     9.543(2)
_cell_length_b                     2.9127(12)
_cell_length_c                     11.194(5)
_cell_angle_alpha                  90
_cell_angle_beta                   115.83(4)
_cell_angle_gamma                  90
_cell_volume                       280.1(2)
_cell_formula_units_Z              2
_cell_measurement_reflns_used      230
_cell_measurement_temperature      293(2)
_cell_measurement_theta_max        16.9340
_cell_measurement_theta_min        1.9320
_shelx_estimated_absorpt_T_max     ?
_shelx_estimated_absorpt_T_min     ?
_exptl_absorpt_coefficient_mu      0.935
_exptl_absorpt_correction_T_max    1.00000
_exptl_absorpt_correction_T_min    0.18929
_exptl_absorpt_correction_type     multi-scan
_exptl_absorpt_process_details
;
CrysAlisPro 1.171.41.106a (Rigaku Oxford Diffraction, 2021)
Empirical absorption correction using spherical harmonics,
implemented in SCALE3 ABSPACK scaling algorithm.
;
_exptl_absorpt_special_details     ?
_exptl_crystal_colour              ?
_exptl_crystal_density_diffrn      5.350
_exptl_crystal_density_meas        ?
_exptl_crystal_density_method      ?
_exptl_crystal_description         ?
_exptl_crystal_F_000               428
_exptl_crystal_size_max            ?
_exptl_crystal_size_mid            ?
_exptl_crystal_size_min            ?
_exptl_transmission_factor_max     ?
_exptl_transmission_factor_min     ?
_diffrn_reflns_av_R_equivalents    0.0947
_diffrn_reflns_av_unetI/netI       0.0777
_diffrn_reflns_Laue_measured_fraction_full  0.381
_diffrn_reflns_Laue_measured_fraction_max  0.250
_diffrn_reflns_limit_h_max         16
_diffrn_reflns_limit_h_min         -18
_diffrn_reflns_limit_k_max         3
_diffrn_reflns_limit_k_min         -4
_diffrn_reflns_limit_l_max         17
_diffrn_reflns_limit_l_min         -11
_diffrn_reflns_number              447
_diffrn_reflns_point_group_measured_fraction_full  0.381
_diffrn_reflns_point_group_measured_fraction_max  0.250
_diffrn_reflns_theta_full          10.031
_diffrn_reflns_theta_max           17.280
_diffrn_reflns_theta_min           1.937
_diffrn_ambient_temperature        293(2)
_diffrn_detector                   'CCD plate'
_diffrn_detector_area_resol_mean   ?
_diffrn_measured_fraction_theta_full  0.381
_diffrn_measured_fraction_theta_max  0.250
_diffrn_measurement_details
;
List of Runs (angles in degrees, time in seconds):

  # Type    Start    End  Width  t~exp~   \w     \q     \k     \f   Frames
--------------------------------------------------------------------------
  1  \f    -19.50  24.00   0.50    1.00   0.00   0.00   0.00    --    87
;
_diffrn_measurement_device         'abstract diffractometer'
_diffrn_measurement_device_type   
 'esperanto-CrysAlisPro-abstract goniometer imported esperanto images'
_diffrn_measurement_method         '\f scans'
_diffrn_orient_matrix_type        
 'CrysAlisPro convention (1999,Acta A55,543-557)'
_diffrn_orient_matrix_UB_11        -0.0031330000
_diffrn_orient_matrix_UB_12        -0.0625881000
_diffrn_orient_matrix_UB_13        0.0189688000
_diffrn_orient_matrix_UB_21        -0.0324921000
_diffrn_orient_matrix_UB_22        -0.0136290000
_diffrn_orient_matrix_UB_23        -0.0181157000
_diffrn_orient_matrix_UB_31        0.0085014000
_diffrn_orient_matrix_UB_32        -0.0765161000
_diffrn_orient_matrix_UB_33        -0.0120606000
_diffrn_radiation_monochromator    synchrotron
_diffrn_radiation_probe            x-ray
_diffrn_radiation_type             synchrotron
_diffrn_radiation_wavelength       0.2903
_diffrn_source                     synchrotron
_reflns_Friedel_coverage           0.000
_reflns_Friedel_fraction_full      .
_reflns_Friedel_fraction_max       .
_reflns_number_gt                  285
_reflns_number_total               353
_reflns_special_details
;
 Reflections were merged by SHELXL according to the crystal
 class for the calculation of statistics and refinement.
 
 _reflns_Friedel_fraction is defined as the number of unique
 Friedel pairs measured divided by the number that would be
 possible theoretically, ignoring centric projections and
 systematic absences.
;
_reflns_threshold_expression       'I > 2\s(I)'
_computing_cell_refinement         'CrysAlisPro 1.171.41.106a (Rigaku OD, 2021)'
_computing_data_collection         'CrysAlisPro 1.171.41.106a (Rigaku OD, 2021)'
_computing_data_reduction          'CrysAlisPro 1.171.41.106a (Rigaku OD, 2021)'
_computing_molecular_graphics      'Olex2 1.5 (Dolomanov et al., 2009)'
_computing_publication_material    'Olex2 1.5 (Dolomanov et al., 2009)'
_computing_structure_refinement    'SHELXL 2018/3 (Sheldrick, 2015)'
_computing_structure_solution      'SHELXT 2018/2 (Sheldrick, 2018)'
_refine_diff_density_max           3.851
_refine_diff_density_min           -3.702
_refine_diff_density_rms           0.817
_refine_ls_extinction_coef         .
_refine_ls_extinction_method       none
_refine_ls_goodness_of_fit_ref     1.916
_refine_ls_hydrogen_treatment      undef
_refine_ls_matrix_type             full
_refine_ls_number_parameters       35
_refine_ls_number_reflns           353
_refine_ls_number_restraints       0
_refine_ls_R_factor_all            0.1818
_refine_ls_R_factor_gt             0.1629
_refine_ls_restrained_S_all        1.916
_refine_ls_shift/su_max            0.004
_refine_ls_shift/su_mean           0.001
_refine_ls_structure_factor_coef   Fsqd
_refine_ls_weighting_details      
 'w=1/[\s^2^(Fo^2^)+(0.2000P)^2^] where P=(Fo^2^+2Fc^2^)/3'
_refine_ls_weighting_scheme        calc
_refine_ls_wR_factor_gt            0.4101
_refine_ls_wR_factor_ref           0.4568
_refine_special_details            ?
_olex2_refinement_description
;
;
_atom_sites_solution_hydrogens     .
_atom_sites_solution_primary       dual
_atom_sites_solution_secondary     ?
loop_
  _atom_site_label
  _atom_site_type_symbol
  _atom_site_fract_x
  _atom_site_fract_y
  _atom_site_fract_z
  _atom_site_U_iso_or_equiv
  _atom_site_adp_type
  _atom_site_occupancy
  _atom_site_site_symmetry_order
  _atom_site_calc_flag
  _atom_site_refinement_flags_posn
  _atom_site_refinement_flags_adp
  _atom_site_refinement_flags_occupancy
  _atom_site_disorder_assembly
  _atom_site_disorder_group
 Fe01 Fe 0.500000 1.000000 0.500000 0.0130(11) Uani 1 4 d S T P . .
 Fe02 Fe 0.3472(3) 0.500000 0.1695(4) 0.0149(10) Uani 1 2 d S T P . .
 Cl03 Cl 0.1518(4) 0.000000 0.0431(6) 0.0130(12) Uani 1 2 d S T P . .
 Cl04 Cl 0.5334(5) 0.000000 0.1962(6) 0.0132(12) Uani 1 2 d S T P . .
 Cl05 Cl 0.3881(4) 0.500000 0.5640(6) 0.0149(14) Uani 1 2 d S T P . .
 Cl06 Cl 0.3071(4) 1.000000 0.3152(6) 0.0125(12) Uani 1 2 d S T P . .

loop_
  _atom_site_aniso_label
  _atom_site_aniso_U_11
  _atom_site_aniso_U_22
  _atom_site_aniso_U_33
  _atom_site_aniso_U_23
  _atom_site_aniso_U_13
  _atom_site_aniso_U_12
 Fe01 0.0090(14) 0.018(3) 0.005(3) 0.000 -0.0027(14) 0.000
 Fe02 0.0151(14) 0.013(3) 0.014(2) 0.000 0.0040(13) 0.000
 Cl03 0.0114(16) 0.011(3) 0.014(3) 0.000 0.0026(16) 0.000
 Cl04 0.0177(17) 0.006(3) 0.017(3) 0.000 0.0080(17) 0.000
 Cl05 0.0108(16) 0.008(3) 0.021(4) 0.000 0.0022(18) 0.000
 Cl06 0.0158(17) 0.004(3) 0.018(3) 0.000 0.0080(18) 0.000

_geom_special_details
;
 All esds (except the esd in the dihedral angle between two l.s. planes)
 are estimated using the full covariance matrix.  The cell esds are taken
 into account individually in the estimation of esds in distances, angles
 and torsion angles; correlations between esds in cell parameters are only
 used when they are defined by crystal symmetry.  An approximate (isotropic)
 treatment of cell esds is used for estimating esds involving l.s. planes.
;
loop_
  _geom_bond_atom_site_label_1
  _geom_bond_atom_site_label_2
  _geom_bond_distance
  _geom_bond_site_symmetry_2
  _geom_bond_publ_flag
 Fe01 Fe01 2.9127(12) 1_565 ?
 Fe01 Fe01 2.9127(12) 1_545 ?
 Fe01 Cl05 2.108(4) . ?
 Fe01 Cl05 2.108(4) 1_565 ?
 Fe01 Cl05 2.108(4) 5_676 ?
 Fe01 Cl05 2.108(4) 5_666 ?
 Fe01 Cl06 2.085(5) . ?
 Fe01 Cl06 2.085(5) 5_676 ?
 Fe02 Fe02 2.9127(12) 1_565 ?
 Fe02 Fe02 2.9127(12) 1_545 ?
 Fe02 Cl03 2.303(4) 1_565 ?
 Fe02 Cl03 2.384(8) 7 ?
 Fe02 Cl03 2.302(4) . ?
 Fe02 Cl04 2.214(4) 1_565 ?
 Fe02 Cl04 2.214(4) . ?
 Fe02 Cl06 2.340(6) 1_545 ?
 Fe02 Cl06 2.340(6) . ?

loop_
  _geom_angle_atom_site_label_1
  _geom_angle_atom_site_label_2
  _geom_angle_atom_site_label_3
  _geom_angle
  _geom_angle_site_symmetry_1
  _geom_angle_site_symmetry_3
  _geom_angle_publ_flag
 Fe01 Fe01 Fe01 180.0 1_545 1_565 ?
 Cl05 Fe01 Fe01 46.29(11) 5_676 1_565 ?
 Cl05 Fe01 Fe01 46.29(11) . 1_545 ?
 Cl05 Fe01 Fe01 46.29(11) 5_666 1_545 ?
 Cl05 Fe01 Fe01 133.71(11) 5_666 1_565 ?
 Cl05 Fe01 Fe01 46.29(11) 1_565 1_565 ?
 Cl05 Fe01 Fe01 133.71(11) 1_565 1_545 ?
 Cl05 Fe01 Fe01 133.71(11) . 1_565 ?
 Cl05 Fe01 Fe01 133.71(11) 5_676 1_545 ?
 Cl05 Fe01 Cl05 87.4(2) 5_676 5_666 ?
 Cl05 Fe01 Cl05 92.6(2) . 5_666 ?
 Cl05 Fe01 Cl05 180.0(3) 5_666 1_565 ?
 Cl05 Fe01 Cl05 87.4(2) . 1_565 ?
 Cl05 Fe01 Cl05 92.6(2) 5_676 1_565 ?
 Cl05 Fe01 Cl05 180.0 . 5_676 ?
 Cl06 Fe01 Fe01 90.000(1) 5_676 1_545 ?
 Cl06 Fe01 Fe01 90.000(1) 5_676 1_565 ?
 Cl06 Fe01 Fe01 90.000(1) . 1_545 ?
 Cl06 Fe01 Fe01 90.000(1) . 1_565 ?
 Cl06 Fe01 Cl05 91.26(18) 5_676 . ?
 Cl06 Fe01 Cl05 88.74(18) . 1_565 ?
 Cl06 Fe01 Cl05 88.74(18) . . ?
 Cl06 Fe01 Cl05 91.26(18) 5_676 1_565 ?
 Cl06 Fe01 Cl05 91.26(18) . 5_666 ?
 Cl06 Fe01 Cl05 88.74(18) 5_676 5_676 ?
 Cl06 Fe01 Cl05 91.26(18) . 5_676 ?
 Cl06 Fe01 Cl05 88.74(18) 5_676 5_666 ?
 Cl06 Fe01 Cl06 180.0 5_676 . ?
 Fe02 Fe02 Fe02 180.0 1_545 1_565 ?
 Cl03 Fe02 Fe02 129.24(8) 1_565 1_545 ?
 Cl03 Fe02 Fe02 50.76(8) . 1_545 ?
 Cl03 Fe02 Fe02 129.24(8) . 1_565 ?
 Cl03 Fe02 Fe02 90.0 7 1_565 ?
 Cl03 Fe02 Fe02 90.0 7 1_545 ?
 Cl03 Fe02 Fe02 50.76(8) 1_565 1_565 ?
 Cl03 Fe02 Cl03 75.0(2) . 7 ?
 Cl03 Fe02 Cl03 75.0(2) 1_565 7 ?
 Cl03 Fe02 Cl03 78.47(17) . 1_565 ?
 Cl03 Fe02 Cl06 72.5(2) 1_565 . ?
 Cl03 Fe02 Cl06 119.2(2) 1_565 1_545 ?
 Cl03 Fe02 Cl06 72.5(2) . 1_545 ?
 Cl03 Fe02 Cl06 119.2(2) . . ?
 Cl04 Fe02 Fe02 131.12(9) . 1_565 ?
 Cl04 Fe02 Fe02 48.88(9) . 1_545 ?
 Cl04 Fe02 Fe02 131.12(9) 1_565 1_545 ?
 Cl04 Fe02 Fe02 48.88(9) 1_565 1_565 ?
 Cl04 Fe02 Cl03 152.4(3) 1_565 . ?
 Cl04 Fe02 Cl03 93.13(13) . . ?
 Cl04 Fe02 Cl03 77.5(2) 1_565 7 ?
 Cl04 Fe02 Cl03 152.4(3) . 1_565 ?
 Cl04 Fe02 Cl03 93.13(13) 1_565 1_565 ?
 Cl04 Fe02 Cl03 77.5(2) . 7 ?
 Cl04 Fe02 Cl04 82.24(18) . 1_565 ?
 Cl04 Fe02 Cl06 132.9(2) 1_565 1_545 ?
 Cl04 Fe02 Cl06 132.9(2) . . ?
 Cl04 Fe02 Cl06 82.05(18) 1_565 . ?
 Cl04 Fe02 Cl06 82.05(18) . 1_545 ?
 Cl06 Fe02 Fe02 51.50(12) . 1_565 ?
 Cl06 Fe02 Fe02 51.50(12) 1_545 1_545 ?
 Cl06 Fe02 Fe02 128.50(12) . 1_545 ?
 Cl06 Fe02 Fe02 128.50(12) 1_545 1_565 ?
 Cl06 Fe02 Cl03 140.28(13) . 7 ?
 Cl06 Fe02 Cl03 140.28(13) 1_545 7 ?
 Cl06 Fe02 Cl06 77.0(2) . 1_545 ?
 Fe02 Cl03 Fe02 105.0(2) 1_545 7 ?
 Fe02 Cl03 Fe02 78.47(17) 1_545 . ?
 Fe02 Cl03 Fe02 105.0(2) . 7 ?
 Fe02 Cl04 Fe02 82.24(18) . 1_545 ?
 Fe01 Cl05 Fe01 87.4(2) . 1_545 ?
 Fe01 Cl06 Fe02 110.47(16) . . ?
 Fe01 Cl06 Fe02 110.47(16) . 1_565 ?
 Fe02 Cl06 Fe02 77.0(2) 1_565 . ?

_shelx_res_file
;
TITL dom1_mc_a.res in C2/m
    dom1_mc.res
    created by SHELXL-2018/3 at 13:15:26 on 21-Jun-2023
REM Old TITL dom1_mc_a.res in C2/m
REM SHELXT solution in C2/m: R1 0.185, Rweak 0.014, Alpha 0.046
REM <I/s> 0.000 for 0 systematic absences, Orientation as input
REM Formula found by SHELXT: Cl8 Fe3
CELL 0.2903 9.5434 2.9127 11.1936 90 115.832 90
ZERR 2 0.0023 0.0012 0.0053 0 0.042 0
LATT 7
SYMM -X,+Y,-Z
SFAC Cl Fe
DISP Cl 0.0044 0.0253 56.6422
DISP Fe 0.057 0.1523 285.2598
UNIT 16 6

L.S. 10
PLAN  5
CONF
list 4
MORE -1
fmap 2
acta
OMIT -4 2 10
OMIT 1 1 4
OMIT 4 0 1
OMIT -3 1 1
OMIT 2 0 2
REM <olex2.extras>
REM <HklSrc "%.\\dom1_mC.hkl">
REM </olex2.extras>

WGHT    0.200000
FVAR       0.62670
FE01  2    0.500000    1.000000    0.500000    10.25000    0.00904    0.01839 =
         0.00522    0.00000   -0.00272    0.00000
FE02  2    0.347208    0.500000    0.169477    10.50000    0.01514    0.01268 =
         0.01429    0.00000    0.00399    0.00000
CL03  1    0.151763    0.000000    0.043119    10.50000    0.01136    0.01080 =
         0.01367    0.00000    0.00256    0.00000
CL04  1    0.533378    0.000000    0.196224    10.50000    0.01765    0.00595 =
         0.01655    0.00000    0.00804    0.00000
CL05  1    0.388095    0.500000    0.564011    10.50000    0.01077    0.00805 =
         0.02076    0.00000    0.00220    0.00000
CL06  1    0.307116    1.000000    0.315248    10.50000    0.01582    0.00399 =
         0.01822    0.00000    0.00800    0.00000
HKLF 4




REM  dom1_mc_a.res in C2/m
REM wR2 = 0.4568, GooF = S = 1.916, Restrained GooF = 1.916 for all data
REM R1 = 0.1629 for 285 Fo > 4sig(Fo) and 0.1818 for all 353 data
REM 35 parameters refined using 0 restraints

END

WGHT      0.2000      0.0000

REM Highest difference peak  3.851,  deepest hole -3.702,  1-sigma level  0.817
Q1    1   0.4704  0.5000  0.5525  10.50000  0.05    3.85
Q2    1   0.1210  1.0000  0.2378  10.50000  0.05    3.33
Q3    1   0.3010  0.5000  0.5492  10.50000  0.05    3.04
Q4    1   0.5231  0.5000  0.2596  10.50000  0.05    2.92
Q5    1   0.3879  0.5000  0.3570  10.50000  0.05    2.82
;
_shelx_res_checksum                11991
_shelx_hkl_file
;
   0  -2  -4  171.41   10.74
   0  -2  -6 2709.13   60.67
   0  -2  -7    0.29    2.54
   0   2   7    4.04    1.76
   0   2   8 2818.86   57.63
   0   2  10   20.45   12.35
   0   2  11  107.28   23.03
   0   2  12  119.17   18.28
   0   2  14   95.88   15.10
   0  -4  -7    0.92    1.42
  -1   1   6 2440.69   74.80
  -1   1   4  934.26   18.82
  -1  -1  -2 4501.57   49.68
  -1  -1  -4 9839.41  155.21
   1   1   4 9999.00  158.34
   1   1   5 1552.43   56.41
  -1  -1  -5 1397.14   57.43
   1   1   6 1049.13   41.05
   1   1   7  819.90   64.71
   1   1   9   -3.11    6.37
  -1   3  16   46.05   10.05
  -1   3  15  287.72   22.01
  -1   3  14   62.71   10.20
  -1   3  13   25.54    5.18
  -1   3  12   29.84    5.80
   1  -3  -9   32.16    8.53
   1  -3  -8   82.01   16.06
   1  -3  -7 1264.90   46.13
   1  -3  -6  493.29   21.25
  -1  -3  -5  258.41   17.60
  -1  -3  -7  198.17   25.45
  -1  -3  -8   83.70   11.37
  -1  -3  -9    0.04    5.08
  -1  -3 -10 4083.09  115.52
   1   3  11   22.02    6.55
   1   3  12   44.65    8.20
   1   3  13  175.09   15.63
   1   3  14   44.88   10.02
   1   3  15   11.59    5.46
   1   3  16  102.51   15.58
   1   3  17   39.36   11.92
   2   0   0   79.54    6.08
  -2   0   0   71.93    7.87
  -2   0  -2 4999.29   95.13
   2   0   4 1366.51   91.63
  -2   2  11  122.67   13.06
  -2   2  10 1543.32   39.35
  -2   2   9   26.65   11.52
  -2   2   8  123.97   11.48
  -2   2   7 1059.18   22.66
  -2  -2  -3 6355.81   93.65
  -2  -2  -4  367.74   23.05
  -2  -2  -5 3147.65  116.63
  -2  -2  -6  204.05   16.30
   2   2   6  207.37   14.84
   2   2   7  175.02   14.05
  -2  -2  -7   91.75   19.54
   2   2   8  600.89   33.71
   2   2   9   84.89   13.82
   2   2  12   94.98   30.47
   2   2  13   32.36   18.48
   2   2  14  574.57   63.79
   2  -4  -7  209.68   13.58
  -2  -4  -7   72.92   16.25
  -2  -4  -8  101.32   28.39
  -2  -4  -9   16.87    4.90
   3  -1  -1 7749.95  120.34
  -3  -1  -2   41.80    7.71
   3   1   2   34.47    9.42
  -3  -1  -3 1649.15   83.74
   3   1   3 1628.98   39.05
   3   1   4  150.19   16.26
   3   1   5 5768.65  164.43
   3   1   7  734.62   49.65
   3   1   9 1009.31   56.26
   3   1  10   75.97   26.14
  -3   3  15  202.54   18.12
  -3   3  14    1.20    1.32
  -3   3  13  132.81    9.38
  -3   3  12    8.00    3.17
   3  -3  -6  476.05   14.05
  -3  -3  -5 1934.21   65.01
  -3  -3  -9  110.37   23.13
  -3  -3 -10    4.54    7.44
   3   3  11   20.04    7.57
  -3  -3 -11   19.70    8.99
   3   3  12  119.91   17.11
   3   3  14    8.56    4.35
   3   3  15   68.53   13.76
   3   3  16   24.94    9.30
  -4   0   1 1235.13   29.16
  -4   0   0 1010.73   53.26
   4   0   0 1059.62   31.90
   4   0   1 7068.27  157.84
  -4   0  -1 7408.88   88.34
   4   0   2   63.16   16.52
  -4   0  -2   26.81    9.13
  -4   0  -3  164.15   26.44
   4   0   3  270.64   22.02
   4   0   4 4209.23  167.71
   4   0   5   21.28   23.05
   4   0   6   44.52   25.09
  -4   2  11   82.43   16.66
  -4   2  10   59.64   12.90
  -4   2   9  512.91   16.43
  -4  -2  -2   88.95   20.08
  -4  -2  -3   88.75   11.93
  -4  -2  -4 1673.37   69.91
  -4  -2  -5   80.28   27.39
   4   2   6  530.13   31.11
  -4  -2  -6  576.82   34.66
  -4  -2  -7 1589.70   99.92
   4   2   7 1826.52   53.28
   4   2   8  403.46   29.30
  -4  -2  -8   24.32   11.22
   4   2   9  945.99   49.21
  -4  -2  -9 1328.38   79.06
   4   2  10 1200.28   57.44
   4   2  11   11.94    7.64
   4   2  12   11.76   15.24
   4   2  13   96.14   34.52
   4   2  14    5.19   19.19
  -4  -4  -7  515.92   62.53
  -4  -4  -8   82.99   22.10
  -4  -4  -9  192.71   19.79
  -4  -4 -10  175.73   38.24
  -5   1   4 2396.15   38.52
   5  -1  -3    0.83    0.65
  -5   1   3   -0.27    0.68
   5  -1  -2   46.93    9.22
  -5   1   2   21.23    6.70
  -5   1   1 2594.22   70.43
   5  -1  -1 2829.75   78.18
  -5  -1   0 4958.37  138.10
   5  -1   0 5198.05  108.14
  -5  -1  -1 1639.52   54.24
  -5  -1  -2  354.81   30.84
   5  -1   2  106.67   34.24
  -5  -1  -3  110.66   26.03
   5   1   3  352.64   22.21
  -5  -1  -4   63.02   10.16
   5   1   4   83.03   12.97
   5   1   5 2249.93   77.75
  -5  -1  -6    1.16    4.62
   5   1   6   10.61    6.74
  -5  -1  -7  112.84   28.14
   5   1   7   68.93   35.26
   5   1   8    3.05    9.83
   5   1   9   73.64   27.06
   5   1  10   28.84   18.12
   5   1  11  858.57   78.68
  -5   3  14   69.12    6.43
  -5   3  13  317.05   11.80
  -5  -3  -4   16.76    6.86
  -5  -3  -5 1414.59   68.13
  -5  -3  -6   31.01   13.63
  -5  -3  -7   30.05   12.10
  -5  -3  -9   26.34   11.99
  -5  -3 -10    4.38    5.36
  -5  -3 -11  670.28   60.78
   5   3  12    7.08    4.85
   5   3  13   31.91   10.81
  -6   0   2 1882.50   47.62
  -6   0   1  931.45   39.06
   6   0  -1  806.02   37.43
   6   0   0 4112.62   68.76
  -6   0   0 4062.08  144.95
  -6   0  -1  110.12   13.28
   6   0   1  156.78   17.01
   6   0   2 1266.48   79.83
  -6   0  -2 1271.64   77.78
  -6   0  -3   -9.64    9.52
   6   0   3   -3.15   11.95
   6   0   4 2422.82  115.87
  -6   0  -4 3370.81  116.37
   6   0   5  428.86   37.96
   6   0   6  649.92   51.52
   6   0   7  236.39   36.95
   6   0   8  102.51   29.61
   6  -2  -4  608.32   29.12
   6  -2  -3 1368.84   35.96
   6  -2  -2  785.62   56.14
   6  -2  -1  190.22   38.30
  -6  -2  -2 1193.27   52.00
  -6  -2  -4  821.61   71.85
  -6  -2  -5  153.29   33.23
  -6  -2  -6  211.77   21.91
   6   2   6  313.55   31.00
   6   2   7   78.37   13.19
  -6  -2  -7   82.35   23.06
   6   2   8   32.68    8.50
   6   2   9  411.87   34.85
  -6  -2  -9  150.50   32.15
  -6  -2 -10  547.20   57.94
   6   2  10  575.79   44.54
   6   2  11  252.32   30.86
   6   2  12   18.57   11.86
  -6  -4  -7   17.36    9.06
  -6  -4  -8   12.15   10.15
  -6  -4  -9  184.20   23.51
  -7   1   5  348.88   16.24
  -7   1   4 1307.75   51.60
  -7   1   3   11.55    6.62
   7  -1  -3   28.06    7.84
  -7   1   2 1219.49   45.73
   7  -1  -2 1300.28   44.12
  -7  -1   1  348.42   34.86
   7  -1  -1  200.07   30.87
  -7  -1   0 1390.36   51.10
  -7   1   0 1444.17   66.28
   7  -1   1 2728.34   98.67
  -7  -1  -1 2610.02   81.54
  -7  -1  -2    1.32    5.75
   7   1   2    5.79    3.83
   7  -1   2    5.04    4.01
   7   1   3  168.10   18.81
  -7  -1  -3   80.64   23.80
   7   1   4 3671.16   97.74
   7  -1   4 3586.13  228.27
  -7  -1  -4 3777.72   92.63
  -7  -1  -5   73.78   25.54
   7   1   5  289.69   29.97
  -7  -1  -6   25.30   21.83
   7   1   6  317.43   36.99
   7   1   7  253.63   39.22
  -7  -1  -7  211.59   40.89
  -7  -1  -8  595.16   63.00
   7   1   8  493.18   74.53
   7   1   9  586.23   87.09
   7  -3  -5   48.03   11.55
   7  -3  -4 1098.45   42.08
   7  -3  -3    7.70    7.80
  -7  -3  -4 1710.40   78.51
  -7  -3  -5   55.32   24.95
  -7  -3  -6   28.55   20.61
  -7  -3  -7  112.84   23.00
  -7  -3  -8  429.30   39.62
  -7  -3  -9   46.45   19.17
  -8   0   3 1598.70   52.20
  -8   0   2 1455.62   54.42
   8   0  -1  325.06   35.99
  -8   0   1  199.66   31.63
   8   0   0  175.27   16.99
  -8   0   0  119.49   28.05
   8   0   1  103.52   15.36
  -8   0  -1   95.47   13.28
  -8   0  -2  814.87   72.03
   8   0   2  949.94   51.46
   8   0   3  485.27   54.51
  -8   0  -4  104.32   27.01
   8   0   4  564.14   76.71
  -8   0  -5   99.69   22.21
   8   0   5   54.90   29.26
   8   0   6  620.52   94.60
   8   0   7   75.93   30.23
   8   0   9  136.76   38.24
  -8   2   9  121.90    7.71
  -8   2   8   -6.80    4.79
  -8   2   7   16.26    5.85
  -8   2   6   69.04   11.82
   8  -2  -4 1420.39   39.10
   8  -2  -3  896.61   56.66
   8  -2  -2  576.87   50.98
   8  -2  -1  156.26   17.96
   8  -2   0  191.40   30.07
   8  -2   1  101.02   33.84
  -8  -2  -2  729.59   52.78
  -8  -2  -3  294.86   46.65
  -8  -2  -4  148.69   46.09
  -8  -2  -5   71.36   20.07
  -8  -2  -6  513.62   40.96
   8   2   6  453.35   51.92
   8   2   7   50.26   11.62
  -8  -2  -7   20.33   14.28
   8   2   8  188.33   24.33
   8   2   9   77.26   17.40
  -9   1   6  644.22   26.40
  -9   1   5 2117.62   61.30
  -9   1   4  148.77   28.75
   9  -1  -3 1106.96   41.14
  -9   1   3  876.59   44.07
   9  -1  -2  136.48   14.03
  -9   1   2  159.15   18.03
  -9  -1   1 2917.85   86.08
   9  -1  -1 2873.51   79.94
  -9   1   0   10.31    7.26
   9  -1   0  280.67   36.29
  -9   1  -1  447.20   42.57
   9  -1   1  693.21   77.57
   9  -1   2    0.74    4.47
  -9  -1  -2   -2.22    6.77
   9  -1   3   74.29   25.10
   9   1   3   74.44   16.33
   9   1   4  463.45   34.16
  -9  -1  -4  526.63   40.66
   9   1   5  161.86   21.47
  -9  -1  -5   41.72   22.00
  -9  -1  -6   24.02   15.23
   9   1   6  722.04   52.25
  -9  -1  -7  288.44   53.01
   9   1   7 1163.83   72.77
   9   1   8  183.89   34.02
   9  -3  -6  285.27   15.49
   9  -3  -5  869.54   30.91
   9  -3  -4   61.63   16.83
   9  -3  -3  449.14   34.05
   9  -3  -2   80.47   15.35
  -9  -3  -4  307.36   55.33
 -10   0   4   78.77   13.32
 -10   0   3  226.00   26.10
 -10   0   2  149.02   28.28
 -10   0   1  584.40   75.04
 -10   0   0   65.04   18.35
  10   0   0   47.65   11.75
  10   0   1 4071.58  100.42
 -10   0  -1 4085.96  105.82
  10   0   2  132.81   21.10
 -10   0  -2   62.45   23.99
 -10   0  -3   -4.34    3.41
 -10   0  -4   77.81   24.11
  10   0   4  706.35   61.84
 -10   0  -5  945.46   78.02
  10   0   5  770.91   87.27
  10   0   6   45.87   30.57
 -10   2  10  330.87   15.79
 -10   2   9   32.63    8.03
 -10   2   8   75.36   10.82
 -10   2   7  334.21   19.73
  10  -2  -4   65.69    9.08
 -10   2   4   70.37   14.12
  10  -2  -3  111.63   14.73
  10  -2  -2   81.63   19.14
  10  -2  -1  614.90   79.10
  10  -2   0   16.60   12.77
  10  -2   1 4102.15  155.03
 -10  -2  -1 3981.41  144.05
  10  -2   2   95.65   25.83
 -10  -2  -2  100.03   26.34
 -10  -2  -3  231.67   52.72
 -10  -2  -4  255.32   57.75
 -11   1   7   96.63   13.84
 -11   1   6 2570.11   71.37
 -11   1   5   22.07   10.93
 -11   1   4  402.47   49.56
  11  -1  -3    1.88    4.15
 -11   1   3   -1.22    1.14
  11  -1  -2  434.59   30.79
 -11   1   2  398.42   35.08
 -11   1   1   52.36   19.08
 -11  -1   1  490.72   46.13
 -11   1   0   24.27   12.31
 -11  -1   0  316.94   52.73
 -11   1  -1  104.66   22.29
  11  -1   1   43.67   20.28
 -11  -1  -1   66.80   34.08
 -11  -1  -2    5.44   11.75
  11  -1   2    9.11   13.11
 -11   1  -2    6.84    4.71
  11   1   3   21.43    9.23
 -11  -1  -3   21.83    8.15
  11   1   4   75.99   18.60
  11  -1   4   22.36   34.62
 -11  -1  -4   81.34   22.76
  11  -1   5  183.83  104.28
  11  -3  -5   16.13    4.29
  11  -3  -4  375.89   28.86
  11  -3  -3   -1.01    3.65
  11  -3  -2  108.34   34.86
  11  -3  -1  282.58   41.76
 -12   0   4 2287.95   91.26
 -12   0   3   29.03   12.75
 -12   0   2 1445.46  118.23
 -12   0   1   92.58   27.38
  12   0   0   10.84    8.14
 -12   0   0    5.44    3.97
  12   0   1    8.93    6.89
 -12   0  -1   18.40    8.29
  12   0   2    8.93    6.71
 -12   0  -2    8.05   10.34
  12   0   3   23.60   15.29
 -12   2  11  398.29   22.02
 -12   2  10  220.24   23.04
 -12   2   8  192.30   15.34
 -12   2   7   31.18    7.73
 -12   2   6   15.15    9.06
 -12   2   5   13.22    8.12
 -12   2   4 1441.35   67.26
  12  -2  -4 1240.74   51.14
  12  -2  -3   15.46    5.35
 -12   2   3   10.60    5.38
  12  -2  -2  631.46   41.65
  12  -2  -1  183.57   29.90
  12  -2   0  -17.16   18.52
  12  -2   1   26.23   20.50
  12  -2   2    0.03   14.29
  12  -2   3   17.04   27.31
 -13   1   8  706.33   40.87
 -13   1   7   29.76   10.91
 -13   1   6  272.08   48.63
 -13   1   5   41.69   19.93
 -13   1   4   69.19   16.06
 -13   1   3   70.10   13.29
 -13   1   2  345.28   54.12
 -13  -1   2  866.96   70.80
 -13  -1   1  710.04   88.16
 -13   1   0   29.90   15.60
 -13   1  -1 1218.21   85.28
  13  -3  -5  119.16   14.66
  13  -3  -4   32.11    8.37
  13  -3  -3   48.95   11.96
  13  -3  -2  473.20   55.43
  13  -3  -1  569.57   76.96
  13  -3   0  228.78   66.87
 -14   0   5   21.31   11.20
 -14   0   4  911.15   88.59
 -14   0   3   51.34   24.25
 -14   0   2    8.70    8.84
 -14   0   1   95.80   27.03
 -14   2  11   -0.58    2.48
 -14   2  10   14.50    8.93
 -14   2   9  619.88   42.24
 -14   2   8   91.99   12.33
 -14   2   7   -2.81    0.74
 -14   2   5   -0.27    4.40
 -14   2   4  689.68   51.22
  14  -2  -4  679.47   45.74
 -14   2   3    7.92    4.06
  14  -2  -3   13.22    5.65
  14  -2  -2    6.05    2.98
  14  -2  -1   68.10   15.66
  14  -2   0   10.37    9.15
 -15   1   8   13.43    7.80
 -15   1   7  162.89   37.74
 -15   1   6    8.30    5.73
 -15   1   5 1058.62   77.97
 -15   1   4  155.89   20.71
 -15   1   3   -3.71    6.09
 -15   1   2   67.75   29.66
  15  -3  -2   66.92   18.66
  15  -3  -1   41.75   18.11
 -16   2  11    9.97    8.70
 -16   2  10   40.12   11.27
 -16   2   9  272.55   22.09
 -16   2   8  120.25   19.04
 -16   2   7    9.89    7.94
 -16   2   6    6.77    6.51
 -16   2   5   50.14   17.14
 -16   2   4  211.89   31.36
  16  -2  -3   65.66   16.67
 -17   1   8  139.60   36.93
 -17   1   7   31.92   17.63
 -18   2  10  114.72   16.39
 -18   2   9    3.35    2.76
 -18   2   8   32.88   16.14
   0   0   0    0.00    0.00






TITL dom1_mC in C2/m
REM C2/m (#12 in standard setting)
CELL 0.29030   9.543426   2.912660  11.193624  90.0000 115.8322  90.0000
ZERR    2.00   0.002268   0.001184   0.005300   0.0000   0.0416   0.0000
LATT  7
SYMM -x, y,-z
SFAC Cl Fe
UNIT 16.00 6.00
TREF
HKLF 4
END
_computing_structure_solution     'SHELXT 2018/2 (Sheldrick, 2018)'
_computing_structure_solution     'SHELXT 2018/2 (Sheldrick, 2018)'
_computing_structure_solution     'SHELXT 2018/2 (Sheldrick, 2018)'
_computing_structure_solution     'SHELXT 2018/2 (Sheldrick, 2018)'
_computing_structure_solution     'SHELXT 2018/2 (Sheldrick, 2018)'
;
_shelx_hkl_checksum                90229
_olex2_submission_special_instructions  'No special instructions were received'
_oxdiff_exptl_absorpt_empirical_details
;
Empirical correction (ABSPACK) includes:
- Absorption correction using spherical harmonics
- Frame scaling
;
_oxdiff_exptl_absorpt_empirical_full_max  2.969
_oxdiff_exptl_absorpt_empirical_full_min  0.289
